[Molden Format]
[N_Atoms]
                    10
[Atoms] (AU)
C1          1      6          -7.68946568     -5.57100710      3.68664780
C2          2      6          -5.78146590     -4.18313554      2.78878223
C3          3      6          -4.38361659     -2.41429520      4.43456360
C4          4      6          -2.47561681     -1.02642364      3.53669803
H5          5      1          -4.90652270     -2.22946109      6.41182184
H6          6      1          -1.89779526     -1.15874227      1.57213875
H7          7      1          -1.46958332      0.26382466      4.77384503
H8          8      1          -8.69549917     -6.86125541      2.44950080
H9          9      1          -8.26728723     -5.43870738      5.65122598
H10        10      1          -5.25855978     -4.36796966      0.81152399
[Charge] (Mulliken)
 -0.408540341124418     
 -0.141439638364018     
 -0.141440012315127     
 -0.408540077117698     
  0.192384893806644     
  0.178541121720967     
  0.179054311498831     
  0.179054087304057     
  0.178540556819363     
  0.192385097770249     
[GTO] (AU)
   1
   s   6
  0.304752488E+04  0.183473713E-02
  0.457369518E+03  0.140373228E-01
  0.103948685E+03  0.688426223E-01
  0.292101553E+02  0.232184443E+00
  0.928666296E+01  0.467941348E+00
  0.316392696E+01  0.362311985E+00
   s   3
  0.786827235E+01 -0.119332420E+00
  0.188128854E+01 -0.160854152E+00
  0.544249258E+00  0.114345644E+01
   s   1
  0.168714478E+00  0.100000000E+01
   p   3
  0.786827235E+01  0.689990666E-01
  0.188128854E+01  0.316423961E+00
  0.544249258E+00  0.744308291E+00
   p   1
  0.168714478E+00  0.100000000E+01
   d   1
  0.800000000E+00  0.100000000E+01
 
   2
   s   6
  0.304752488E+04  0.183473713E-02
  0.457369518E+03  0.140373228E-01
  0.103948685E+03  0.688426223E-01
  0.292101553E+02  0.232184443E+00
  0.928666296E+01  0.467941348E+00
  0.316392696E+01  0.362311985E+00
   s   3
  0.786827235E+01 -0.119332420E+00
  0.188128854E+01 -0.160854152E+00
  0.544249258E+00  0.114345644E+01
   s   1
  0.168714478E+00  0.100000000E+01
   p   3
  0.786827235E+01  0.689990666E-01
  0.188128854E+01  0.316423961E+00
  0.544249258E+00  0.744308291E+00
   p   1
  0.168714478E+00  0.100000000E+01
   d   1
  0.800000000E+00  0.100000000E+01
 
   3
   s   6
  0.304752488E+04  0.183473713E-02
  0.457369518E+03  0.140373228E-01
  0.103948685E+03  0.688426223E-01
  0.292101553E+02  0.232184443E+00
  0.928666296E+01  0.467941348E+00
  0.316392696E+01  0.362311985E+00
   s   3
  0.786827235E+01 -0.119332420E+00
  0.188128854E+01 -0.160854152E+00
  0.544249258E+00  0.114345644E+01
   s   1
  0.168714478E+00  0.100000000E+01
   p   3
  0.786827235E+01  0.689990666E-01
  0.188128854E+01  0.316423961E+00
  0.544249258E+00  0.744308291E+00
   p   1
  0.168714478E+00  0.100000000E+01
   d   1
  0.800000000E+00  0.100000000E+01
 
   4
   s   6
  0.304752488E+04  0.183473713E-02
  0.457369518E+03  0.140373228E-01
  0.103948685E+03  0.688426223E-01
  0.292101553E+02  0.232184443E+00
  0.928666296E+01  0.467941348E+00
  0.316392696E+01  0.362311985E+00
   s   3
  0.786827235E+01 -0.119332420E+00
  0.188128854E+01 -0.160854152E+00
  0.544249258E+00  0.114345644E+01
   s   1
  0.168714478E+00  0.100000000E+01
   p   3
  0.786827235E+01  0.689990666E-01
  0.188128854E+01  0.316423961E+00
  0.544249258E+00  0.744308291E+00
   p   1
  0.168714478E+00  0.100000000E+01
   d   1
  0.800000000E+00  0.100000000E+01
 
   5
   s   3
  0.187311370E+02  0.334946043E-01
  0.282539437E+01  0.234726954E+00
  0.640121692E+00  0.813757326E+00
   s   1
  0.161277759E+00  0.100000000E+01
 
   6
   s   3
  0.187311370E+02  0.334946043E-01
  0.282539437E+01  0.234726954E+00
  0.640121692E+00  0.813757326E+00
   s   1
  0.161277759E+00  0.100000000E+01
 
   7
   s   3
  0.187311370E+02  0.334946043E-01
  0.282539437E+01  0.234726954E+00
  0.640121692E+00  0.813757326E+00
   s   1
  0.161277759E+00  0.100000000E+01
 
   8
   s   3
  0.187311370E+02  0.334946043E-01
  0.282539437E+01  0.234726954E+00
  0.640121692E+00  0.813757326E+00
   s   1
  0.161277759E+00  0.100000000E+01
 
   9
   s   3
  0.187311370E+02  0.334946043E-01
  0.282539437E+01  0.234726954E+00
  0.640121692E+00  0.813757326E+00
   s   1
  0.161277759E+00  0.100000000E+01
 
  10
   s   3
  0.187311370E+02  0.334946043E-01
  0.282539437E+01  0.234726954E+00
  0.640121692E+00  0.813757326E+00
   s   1
  0.161277759E+00  0.100000000E+01
 
[MO]
Sym=     1a  
Ene=   -11.2370
Spin= Alpha
Occup=    2.00000
   1         0.04777318
   2         0.00099212
   3         0.00268831
   4        -0.00010756
   5        -0.00008956
   6         0.00001593
   7         0.00104513
   8         0.00091242
   9        -0.00002563
  10        -0.00020501
  11        -0.00020176
  12        -0.00026119
  13         0.00000369
  14         0.00001804
  15        -0.00000610
  16         0.70234335
  17         0.01944395
  18        -0.00638444
  19         0.00004020
  20         0.00004977
  21         0.00004396
  22         0.00083789
  23         0.00056450
  24        -0.00053208
  25        -0.00149556
  26        -0.00163678
  27        -0.00160220
  28         0.00020970
  29        -0.00019726
  30        -0.00011242
  31         0.70217697
  32         0.01943938
  33        -0.00638178
  34        -0.00004019
  35        -0.00004975
  36        -0.00004392
  37        -0.00083799
  38        -0.00056469
  39         0.00053178
  40        -0.00149530
  41        -0.00163650
  42        -0.00160196
  43         0.00020959
  44        -0.00019725
  45        -0.00011246
  46         0.04775741
  47         0.00099171
  48         0.00268776
  49         0.00010754
  50         0.00008955
  51        -0.00001591
  52        -0.00104493
  53        -0.00091226
  54         0.00002558
  55        -0.00020494
  56        -0.00020170
  57        -0.00026111
  58         0.00000371
  59         0.00001803
  60        -0.00000610
  61        -0.00018565
  62         0.00103324
  63        -0.00010986
  64        -0.00017145
  65        -0.00001848
  66         0.00028898
  67        -0.00001848
  68         0.00028898
  69        -0.00010987
  70        -0.00017145
  71        -0.00018566
  72         0.00103358
Sym=     2a  
Ene=   -11.2370
Spin= Alpha
Occup=    2.00000
   1        -0.05169956
   2        -0.00131638
   3        -0.00251305
   4         0.00008596
   5         0.00005237
   6        -0.00007157
   7        -0.00084822
   8        -0.00068637
   9         0.00018664
  10         0.00026315
  11         0.00022620
  12         0.00032875
  13         0.00011243
  14        -0.00005785
  15         0.00002242
  16        -0.70215314
  17        -0.01930426
  18         0.01132076
  19        -0.00006298
  20        -0.00011759
  21        -0.00019023
  22         0.00044431
  23         0.00080500
  24         0.00126674
  25         0.00110199
  26         0.00116406
  27         0.00103667
  28        -0.00048597
  29         0.00002434
  30        -0.00018621
  31         0.70232007
  32         0.01930889
  33        -0.01132229
  34        -0.00006299
  35        -0.00011760
  36        -0.00019024
  37         0.00044411
  38         0.00080486
  39         0.00126687
  40        -0.00110234
  41        -0.00116445
  42        -0.00103705
  43         0.00048602
  44        -0.00002439
  45         0.00018618
  46         0.05170672
  47         0.00131650
  48         0.00251374
  49         0.00008599
  50         0.00005239
  51        -0.00007157
  52        -0.00084847
  53        -0.00068659
  54         0.00018664
  55        -0.00026319
  56        -0.00022623
  57        -0.00032881
  58        -0.00011243
  59         0.00005785
  60        -0.00002242
  61        -0.00004474
  62         0.00144246
  63        -0.00004079
  64        -0.00006975
  65        -0.00003039
  66        -0.00000264
  67         0.00003039
  68         0.00000270
  69         0.00004076
  70         0.00006969
  71         0.00004469
  72        -0.00144222
Sym=     3a  
Ene=   -11.2250
Spin= Alpha
Occup=    2.00000
   1         0.79669223
   2         0.02200070
   3        -0.00920578
   4         0.00003423
   5         0.00003153
   6         0.00000418
   7        -0.00041134
   8        -0.00029205
   9         0.00021546
  10        -0.00159941
  11        -0.00172557
  12        -0.00159286
  13         0.00037715
  14        -0.00015568
  15         0.00002390
  16        -0.05527948
  17        -0.00183795
  18         0.00371464
  19         0.00010286
  20         0.00007293
  21        -0.00005419
  22        -0.00085868
  23        -0.00068358
  24         0.00022342
  25        -0.00001333
  26         0.00000944
  27        -0.00009580
  28        -0.00006716
  29         0.00004446
  30        -0.00002218
  31        -0.04015694
  32        -0.00137978
  33         0.00249057
  34        -0.00006397
  35        -0.00004884
  36         0.00002303
  37         0.00052947
  38         0.00046592
  39        -0.00000171
  40         0.00001076
  41         0.00003103
  42        -0.00005415
  43        -0.00002083
  44         0.00004626
  45         0.00000297
  46         0.59323680
  47         0.01636950
  48        -0.00662728
  49        -0.00002854
  50        -0.00002641
  51        -0.00000388
  52         0.00019845
  53         0.00011831
  54        -0.00017318
  55        -0.00119125
  56        -0.00128318
  57        -0.00119249
  58         0.00028595
  59        -0.00010984
  60         0.00002201
  61        -0.00005222
  62        -0.00032677
  63        -0.00010334
  64         0.00128609
  65        -0.00009173
  66         0.00129930
  67        -0.00012057
  68         0.00169394
  69        -0.00012297
  70         0.00171640
  71        -0.00005360
  72        -0.00034133
Sym=     4a  
Ene=   -11.2250
Spin= Alpha
Occup=    2.00000
   1        -0.59293325
   2        -0.01641851
   3         0.00764509
   4        -0.00001484
   5        -0.00001323
   6        -0.00000048
   7         0.00068223
   8         0.00056323
   9        -0.00011585
  10         0.00118936
  11         0.00129029
  12         0.00116314
  13        -0.00026285
  14         0.00013708
  15        -0.00000310
  16         0.04463572
  17         0.00132848
  18        -0.00372510
  19        -0.00012055
  20        -0.00007332
  21         0.00010075
  22         0.00102243
  23         0.00065901
  24        -0.00074058
  25         0.00008207
  26         0.00007668
  27         0.00013126
  28         0.00015172
  29         0.00001279
  30         0.00008448
  31        -0.05860734
  32        -0.00179957
  33         0.00463373
  34        -0.00014498
  35        -0.00009115
  36         0.00011205
  37         0.00122571
  38         0.00082734
  39        -0.00077355
  40        -0.00008245
  41        -0.00007077
  42        -0.00015322
  43        -0.00016460
  44         0.00000050
  45        -0.00008730
  46         0.79646669
  47         0.02203726
  48        -0.00996361
  49        -0.00002403
  50        -0.00002171
  51        -0.00000166
  52         0.00077152
  53         0.00062334
  54        -0.00017276
  55        -0.00159802
  56        -0.00173089
  57        -0.00157101
  58         0.00035995
  59        -0.00017596
  60         0.00000983
  61        -0.00001244
  62        -0.00009856
  63        -0.00008364
  64         0.00168923
  65        -0.00011402
  66         0.00156666
  67         0.00008293
  68        -0.00112834
  69         0.00005049
  70        -0.00124954
  71        -0.00000306
  72         0.00000073
Sym=     5a  
Ene=    -1.0846
Spin= Alpha
Occup=    2.00000
   1        -0.09055573
   2         0.17036645
   3         0.13701135
   4         0.05982725
   5         0.04600941
   6        -0.02052200
   7         0.00861295
   8         0.00639102
   9        -0.00366703
  10         0.00348094
  11        -0.00002957
  12         0.00196826
  13         0.00971094
  14        -0.00416291
  15        -0.00013579
  16        -0.13177803
  17         0.25299668
  18         0.16631007
  19        -0.01069323
  20         0.00697333
  21         0.05021745
  22         0.01230243
  23         0.00878835
  24        -0.00628020
  25         0.00252262
  26         0.00042552
  27         0.00601970
  28         0.01333399
  29        -0.00174236
  30         0.00493510
  31        -0.13177820
  32         0.25299695
  33         0.16631067
  34         0.01069358
  35        -0.00697315
  36        -0.05021763
  37        -0.01230230
  38        -0.00878838
  39         0.00627984
  40         0.00252264
  41         0.00042552
  42         0.00601970
  43         0.01333402
  44        -0.00174240
  45         0.00493508
  46        -0.09055633
  47         0.17036754
  48         0.13701179
  49        -0.05982709
  50        -0.04600967
  51         0.02052139
  52        -0.00861281
  53        -0.00639095
  54         0.00366712
  55         0.00348091
  56        -0.00002959
  57         0.00196837
  58         0.00971093
  59        -0.00416296
  60        -0.00013568
  61         0.06434702
  62         0.00616839
  63         0.04480450
  64         0.00726268
  65         0.03994952
  66         0.00465453
  67         0.03994931
  68         0.00465456
  69         0.04480334
  70         0.00726247
  71         0.06434701
  72         0.00616830
Sym=     6a  
Ene=    -0.9951
Spin= Alpha
Occup=    2.00000
   1         0.12721622
   2        -0.24033407
   3        -0.19625823
   4        -0.05296952
   5        -0.03668533
   6         0.03057529
   7        -0.00390411
   8        -0.00521474
   9        -0.00543756
  10        -0.00297913
  11         0.00090159
  12        -0.00623429
  13        -0.01211879
  14         0.00528462
  15        -0.00170127
  16         0.08611757
  17        -0.16679585
  18        -0.11770520
  19         0.10518378
  20         0.08851234
  21        -0.01273473
  22         0.02099361
  23         0.02229247
  24         0.01162892
  25        -0.00214138
  26         0.00341986
  27        -0.00131309
  28        -0.00501555
  29         0.00913606
  30         0.00539752
  31        -0.08611675
  32         0.16679423
  33         0.11770388
  34         0.10518396
  35         0.08851245
  36        -0.01273461
  37         0.02099370
  38         0.02229248
  39         0.01162861
  40         0.00214139
  41        -0.00341988
  42         0.00131304
  43         0.00501549
  44        -0.00913607
  45        -0.00539758
  46        -0.12721633
  47         0.24033422
  48         0.19625817
  49        -0.05296864
  50        -0.03668535
  51         0.03057400
  52        -0.00390394
  53        -0.00521478
  54        -0.00543754
  55         0.00297908
  56        -0.00090162
  57         0.00623443
  58         0.01211869
  59        -0.00528468
  60         0.00170144
  61         0.04542724
  62         0.00530074
  63         0.06992009
  64         0.01153993
  65         0.07468041
  66         0.02045439
  67        -0.07468048
  68        -0.02045444
  69        -0.06991869
  70        -0.01153971
  71        -0.04542778
  72        -0.00530072
Sym=     7a  
Ene=    -0.8131
Spin= Alpha
Occup=    2.00000
   1        -0.10719933
   2         0.20693011
   3         0.20467722
   4        -0.07294856
   5        -0.06146637
   6         0.00858811
   7        -0.03090326
   8        -0.02606162
   9         0.00356911
  10        -0.00241279
  11        -0.00158203
  12         0.01438336
  13         0.00683782
  14        -0.00032063
  15         0.00862191
  16         0.07267569
  17        -0.14557612
  18        -0.13523436
  19        -0.12421704
  20        -0.11457830
  21        -0.01574392
  22        -0.03940128
  23        -0.03199418
  24         0.00832923
  25         0.00448809
  26         0.00053819
  27        -0.01216044
  28        -0.00329448
  29        -0.00476864
  30        -0.01112138
  31         0.07267704
  32        -0.14557887
  33        -0.13523600
  34         0.12421668
  35         0.11457727
  36         0.01574224
  37         0.03940119
  38         0.03199365
  39        -0.00833057
  40         0.00448814
  41         0.00053824
  42        -0.01216055
  43        -0.00329451
  44        -0.00476855
  45        -0.01112137
  46        -0.10719958
  47         0.20693071
  48         0.20467685
  49         0.07295037
  50         0.06146611
  51        -0.00859140
  52         0.03090390
  53         0.02606182
  54        -0.00356931
  55        -0.00241288
  56        -0.00158211
  57         0.01438357
  58         0.00683767
  59        -0.00032072
  60         0.00862213
  61        -0.06464310
  62        -0.02145164
  63         0.10165559
  64         0.04447628
  65         0.12189322
  66         0.05227923
  67         0.12189354
  68         0.05227960
  69         0.10165300
  70         0.04447503
  71        -0.06464121
  72        -0.02145105
Sym=     8a  
Ene=    -0.7514
Spin= Alpha
Occup=    2.00000
   1        -0.04958304
   2         0.09647625
   3         0.09967556
   4        -0.08106179
   5        -0.03327923
   6         0.11682034
   7        -0.03065659
   8        -0.01473139
   9         0.03760804
  10        -0.00326217
  11        -0.00104616
  12         0.01149742
  13         0.00195849
  14         0.00162084
  15         0.00752165
  16         0.08373232
  17        -0.16421193
  18        -0.17157275
  19        -0.03069346
  20         0.02979114
  21         0.17408038
  22        -0.02032713
  23         0.00445798
  24         0.06850968
  25         0.00236980
  26         0.00525164
  27        -0.01279987
  28        -0.00179008
  29         0.00801122
  30        -0.00029317
  31        -0.08373179
  32         0.16421086
  33         0.17157172
  34        -0.03069103
  35         0.02979377
  36         0.17408128
  37        -0.02032639
  38         0.00445878
  39         0.06851006
  40        -0.00236973
  41        -0.00525160
  42         0.01279968
  43         0.00179008
  44        -0.00801127
  45         0.00029303
  46         0.04958159
  47        -0.09647358
  48        -0.09967187
  49        -0.08106186
  50        -0.03327720
  51         0.11682375
  52        -0.03065633
  53        -0.01473066
  54         0.03760863
  55         0.00326223
  56         0.00104625
  57        -0.01149738
  58        -0.00195823
  59        -0.00162068
  60        -0.00752170
  61         0.16709126
  62         0.08548213
  63        -0.11477103
  64        -0.06522750
  65        -0.04173170
  66        -0.02012590
  67         0.04173461
  68         0.02012745
  69         0.11477001
  70         0.06522707
  71        -0.16709163
  72        -0.08548239
Sym=     9a  
Ene=    -0.6339
Spin= Alpha
Occup=    2.00000
   1         0.01764945
   2        -0.03350835
   3        -0.05918996
   4         0.21263485
   5         0.19889652
   6         0.03540402
   7         0.08474987
   8         0.08351306
   9         0.02709483
  10         0.00426445
  11        -0.00217741
  12        -0.01151261
  13        -0.00088222
  14        -0.00907374
  15        -0.01317108
  16        -0.03355635
  17         0.07096258
  18         0.04215812
  19        -0.14093092
  20        -0.07370304
  21         0.15456207
  22        -0.04662355
  23        -0.02584534
  24         0.04665325
  25        -0.00029934
  26        -0.00282829
  27        -0.00409886
  28        -0.00065533
  29        -0.00410498
  30        -0.00479519
  31         0.03355440
  32        -0.07095929
  33        -0.04215431
  34        -0.14090985
  35        -0.07367002
  36         0.15460647
  37        -0.04661910
  38        -0.02583523
  39         0.04667220
  40         0.00029913
  41         0.00282759
  42         0.00410017
  43         0.00065489
  44         0.00410372
  45         0.00479467
  46        -0.01764785
  47         0.03350559
  48         0.05918590
  49         0.21262567
  50         0.19890717
  51         0.03546237
  52         0.08474642
  53         0.08351846
  54         0.02712093
  55        -0.00426359
  56         0.00217835
  57         0.01151001
  58         0.00088312
  59         0.00907485
  60         0.01317103
  61         0.07076027
  62         0.05590454
  63         0.02835488
  64         0.02366857
  65         0.16783461
  66         0.11306225
  67        -0.16781504
  68        -0.11304986
  69        -0.02839106
  70        -0.02369222
  71        -0.07073580
  72        -0.05588946
Sym=    10a  
Ene=    -0.6337
Spin= Alpha
Occup=    2.00000
   1         0.00736890
   2        -0.01324365
   3        -0.01635091
   4         0.03661784
   5        -0.04750273
   6        -0.24432056
   7         0.01447405
   8        -0.02256910
   9        -0.10819013
  10         0.00331802
  11         0.00404836
  12        -0.01051255
  13         0.00383856
  14         0.00493950
  15        -0.00003704
  16        -0.00831468
  17         0.01404374
  18         0.01610223
  19        -0.08553511
  20        -0.13664125
  21        -0.18771118
  22        -0.01732151
  23        -0.04163659
  24        -0.08079047
  25        -0.00106523
  26        -0.00289206
  27         0.00571730
  28        -0.00187065
  29        -0.00516113
  30        -0.00205894
  31        -0.00832185
  32         0.01405914
  33         0.01610969
  34         0.08557098
  35         0.13666005
  36         0.18766996
  37         0.01733351
  38         0.04164332
  39         0.08077775
  40        -0.00106525
  41        -0.00289259
  42         0.00571592
  43        -0.00187076
  44        -0.00516187
  45        -0.00206010
  46         0.00737228
  47        -0.01325031
  48        -0.01636226
  49        -0.03666972
  50         0.04745745
  51         0.24431638
  52        -0.01449446
  53         0.02255017
  54         0.10818484
  55         0.00331920
  56         0.00404803
  57        -0.01051549
  58         0.00383870
  59         0.00493766
  60        -0.00004027
  61         0.10401961
  62         0.06420950
  63        -0.15008007
  64        -0.09883862
  65         0.08263863
  66         0.05314208
  67         0.08267586
  68         0.05316717
  69        -0.15007086
  70        -0.09883193
  71         0.10404017
  72         0.06422545
Sym=    11a  
Ene=    -0.5464
Spin= Alpha
Occup=    2.00000
   1         0.02173011
   2        -0.04773184
   3        -0.02174751
   4        -0.22261519
   5        -0.17417289
   6         0.06725896
   7        -0.08277923
   8        -0.06334380
   9         0.02936658
  10        -0.00455783
  11         0.00074041
  12         0.01314538
  13        -0.00244374
  14         0.00584123
  15         0.01020783
  16         0.00260848
  17        -0.00653338
  18         0.02031476
  19         0.22098469
  20         0.14492094
  21        -0.15245259
  22         0.09319681
  23         0.05644317
  24        -0.07861363
  25        -0.01049274
  26        -0.00422161
  27         0.02215416
  28        -0.00860408
  29         0.00335971
  30         0.01167245
  31         0.00260823
  32        -0.00653293
  33         0.02031583
  34        -0.22098692
  35        -0.14492234
  36         0.15245563
  37        -0.09319764
  38        -0.05644357
  39         0.07861530
  40        -0.01049278
  41        -0.00422174
  42         0.02215445
  43        -0.00860419
  44         0.00335951
  45         0.01167244
  46         0.02173015
  47        -0.04773180
  48        -0.02174783
  49         0.22261709
  50         0.17417176
  51        -0.06726439
  52         0.08278000
  53         0.06334318
  54        -0.02936907
  55        -0.00455794
  56         0.00074021
  57         0.01314568
  58        -0.00244398
  59         0.00584092
  60         0.01020778
  61         0.13179824
  62         0.11054664
  63         0.06065323
  64         0.05995052
  65         0.09714945
  66         0.09024798
  67         0.09715144
  68         0.09024956
  69         0.06064998
  70         0.05994798
  71         0.13179574
  72         0.11054479
Sym=    12a  
Ene=    -0.5409
Spin= Alpha
Occup=    2.00000
   1         0.00479812
   2        -0.01130865
   3         0.00433683
   4        -0.04345575
   5         0.05242603
   6         0.27785275
   7        -0.01134061
   8         0.04133293
   9         0.15720785
  10        -0.00538152
  11        -0.00918677
  12         0.01768187
  13        -0.00992091
  14        -0.01382280
  15        -0.00548804
  16        -0.01790154
  17         0.03520680
  18         0.04374823
  19         0.09655995
  20         0.04599769
  21        -0.11968639
  22         0.03186392
  23        -0.00115439
  24        -0.08952522
  25        -0.00392006
  26        -0.00619978
  27         0.01438269
  28        -0.00550449
  29        -0.00907925
  30        -0.00204058
  31         0.01790149
  32        -0.03520660
  33        -0.04374715
  34         0.09655266
  35         0.04599006
  36        -0.11969212
  37         0.03186158
  38        -0.00115728
  39        -0.08952820
  40         0.00391989
  41         0.00620003
  42        -0.01438280
  43         0.00550458
  44         0.00907979
  45         0.00204096
  46        -0.00479821
  47         0.01130835
  48        -0.00433518
  49        -0.04345073
  50         0.05243255
  51         0.27785092
  52        -0.01133820
  53         0.04133609
  54         0.15720639
  55         0.00538155
  56         0.00918695
  57        -0.01768162
  58         0.00992115
  59         0.01382327
  60         0.00548819
  61        -0.11093307
  62        -0.07493242
  63        -0.18249743
  64        -0.13859515
  65         0.12437133
  66         0.09100014
  67        -0.12436742
  68        -0.09099677
  69         0.18249899
  70         0.13859750
  71         0.11093035
  72         0.07493047
Sym=    13a  
Ene=    -0.4925
Spin= Alpha
Occup=    2.00000
   1        -0.00135061
   2         0.00343262
   3         0.01442938
   4         0.06129897
   5         0.10640708
   6         0.16050653
   7         0.04205515
   8         0.07058455
   9         0.10271240
  10        -0.00366127
  11        -0.01009029
  12         0.01255398
  13        -0.00954706
  14        -0.01727690
  15        -0.01055633
  16         0.01502718
  17        -0.03361905
  18        -0.04393467
  19        -0.09289707
  20        -0.15735791
  21        -0.23129733
  22        -0.02164987
  23        -0.06730354
  24        -0.14772670
  25        -0.00344611
  26        -0.00969062
  27         0.01648810
  28        -0.00955199
  29        -0.01767380
  30        -0.00945769
  31         0.01502742
  32        -0.03361960
  33        -0.04393489
  34         0.09289983
  35         0.15735743
  36         0.23129597
  37         0.02165087
  38         0.06730227
  39         0.14772481
  40        -0.00344593
  41        -0.00969053
  42         0.01648780
  43        -0.00955186
  44        -0.01767368
  45        -0.00945758
  46        -0.00135053
  47         0.00343272
  48         0.01442803
  49        -0.06129840
  50        -0.10640783
  51        -0.16050026
  52        -0.04205467
  53        -0.07058466
  54        -0.10270779
  55        -0.00366131
  56        -0.01009003
  57         0.01255358
  58        -0.00954693
  59        -0.01727662
  60        -0.01055606
  61         0.14281323
  62         0.12342711
  63         0.11403650
  64         0.10482595
  65        -0.14166320
  66        -0.11976528
  67        -0.14166568
  68        -0.11976715
  69         0.11404056
  70         0.10482991
  71         0.14281502
  72         0.12342814
Sym=    14a  
Ene=    -0.4365
Spin= Alpha
Occup=    2.00000
   1         0.00000014
   2        -0.00000026
   3        -0.00000063
   4         0.14325607
   5        -0.16260047
   6         0.05308462
   7         0.10750298
   8        -0.12201977
   9         0.03983602
  10         0.01523264
  11        -0.01294192
  12        -0.00229072
  13        -0.00339908
  14        -0.00031006
  15         0.00649038
  16        -0.00000002
  17         0.00000005
  18         0.00000024
  19         0.18844765
  20        -0.21389523
  21         0.06983193
  22         0.13314098
  23        -0.15112010
  24         0.04933738
  25        -0.00641281
  26         0.00179846
  27         0.00461434
  28         0.00328759
  29         0.00581747
  30        -0.00849924
  31        -0.00000021
  32         0.00000047
  33         0.00000033
  34         0.18844728
  35        -0.21389567
  36         0.06983032
  37         0.13314078
  38        -0.15112021
  39         0.04933629
  40         0.00641283
  41        -0.00179834
  42        -0.00461451
  43        -0.00328748
  44        -0.00581732
  45         0.00849933
  46         0.00000011
  47        -0.00000025
  48        -0.00000029
  49         0.14325569
  50        -0.16259961
  51         0.05308703
  52         0.10750285
  53        -0.12201920
  54         0.03983780
  55        -0.01523256
  56         0.01294201
  57         0.00229056
  58         0.00339911
  59         0.00031012
  60        -0.00649027
  61        -0.00000087
  62        -0.00000091
  63        -0.00000087
  64        -0.00000095
  65         0.00000091
  66         0.00000093
  67         0.00000015
  68        -0.00000000
  69        -0.00000011
  70        -0.00000015
  71        -0.00000020
  72        -0.00000031
Sym=    15a  
Ene=    -0.3173
Spin= Alpha
Occup=    2.00000
   1        -0.00000007
   2         0.00000014
   3        -0.00000043
   4        -0.19545811
   5         0.22185062
   6        -0.07242846
   7        -0.17835951
   8         0.20244300
   9        -0.06609235
  10        -0.01448490
  11         0.01170513
  12         0.00277976
  13         0.00353821
  14         0.00123210
  15        -0.00712212
  16        -0.00000019
  17         0.00000031
  18         0.00000181
  19        -0.15061829
  20         0.17095937