[Molden Format]
[N_Atoms]
                    10
[Atoms] (AU)
C1          1      6         -10.17874521     -0.34007511     -0.18147040
C2          2      6          -7.65683011     -0.24035427     -0.12825571
C3          3      6          -6.32164411      1.92222941      1.02578113
C4          4      6          -3.79972901      2.02195026      1.07899582
H5          5      1          -7.39788094      3.46524749      1.84921040
H6          6      1          -2.65946827      0.51678340      0.27576773
H7          7      1          -2.85050068      3.62615767      1.93507955
H8          8      1         -11.12797354     -1.94428252     -1.03755413
H9          9      1         -11.31900595      1.16509174      0.62173879
H10        10      1          -6.58059328     -1.78335344     -0.95168497
[Charge] (Mulliken)
 -0.408539689811355     
 -0.141440379738039     
 -0.141440642186562     
 -0.408539968729672     
  0.192385265359752     
  0.178541515065121     
  0.179053161253604     
  0.179052880480731     
  0.178542057348589     
  0.192385800956505     
[GTO] (AU)
   1
   s   6
  0.304752488E+04  0.183473713E-02
  0.457369518E+03  0.140373228E-01
  0.103948685E+03  0.688426223E-01
  0.292101553E+02  0.232184443E+00
  0.928666296E+01  0.467941348E+00
  0.316392696E+01  0.362311985E+00
   s   3
  0.786827235E+01 -0.119332420E+00
  0.188128854E+01 -0.160854152E+00
  0.544249258E+00  0.114345644E+01
   s   1
  0.168714478E+00  0.100000000E+01
   p   3
  0.786827235E+01  0.689990666E-01
  0.188128854E+01  0.316423961E+00
  0.544249258E+00  0.744308291E+00
   p   1
  0.168714478E+00  0.100000000E+01
   d   1
  0.800000000E+00  0.100000000E+01
 
   2
   s   6
  0.304752488E+04  0.183473713E-02
  0.457369518E+03  0.140373228E-01
  0.103948685E+03  0.688426223E-01
  0.292101553E+02  0.232184443E+00
  0.928666296E+01  0.467941348E+00
  0.316392696E+01  0.362311985E+00
   s   3
  0.786827235E+01 -0.119332420E+00
  0.188128854E+01 -0.160854152E+00
  0.544249258E+00  0.114345644E+01
   s   1
  0.168714478E+00  0.100000000E+01
   p   3
  0.786827235E+01  0.689990666E-01
  0.188128854E+01  0.316423961E+00
  0.544249258E+00  0.744308291E+00
   p   1
  0.168714478E+00  0.100000000E+01
   d   1
  0.800000000E+00  0.100000000E+01
 
   3
   s   6
  0.304752488E+04  0.183473713E-02
  0.457369518E+03  0.140373228E-01
  0.103948685E+03  0.688426223E-01
  0.292101553E+02  0.232184443E+00
  0.928666296E+01  0.467941348E+00
  0.316392696E+01  0.362311985E+00
   s   3
  0.786827235E+01 -0.119332420E+00
  0.188128854E+01 -0.160854152E+00
  0.544249258E+00  0.114345644E+01
   s   1
  0.168714478E+00  0.100000000E+01
   p   3
  0.786827235E+01  0.689990666E-01
  0.188128854E+01  0.316423961E+00
  0.544249258E+00  0.744308291E+00
   p   1
  0.168714478E+00  0.100000000E+01
   d   1
  0.800000000E+00  0.100000000E+01
 
   4
   s   6
  0.304752488E+04  0.183473713E-02
  0.457369518E+03  0.140373228E-01
  0.103948685E+03  0.688426223E-01
  0.292101553E+02  0.232184443E+00
  0.928666296E+01  0.467941348E+00
  0.316392696E+01  0.362311985E+00
   s   3
  0.786827235E+01 -0.119332420E+00
  0.188128854E+01 -0.160854152E+00
  0.544249258E+00  0.114345644E+01
   s   1
  0.168714478E+00  0.100000000E+01
   p   3
  0.786827235E+01  0.689990666E-01
  0.188128854E+01  0.316423961E+00
  0.544249258E+00  0.744308291E+00
   p   1
  0.168714478E+00  0.100000000E+01
   d   1
  0.800000000E+00  0.100000000E+01
 
   5
   s   3
  0.187311370E+02  0.334946043E-01
  0.282539437E+01  0.234726954E+00
  0.640121692E+00  0.813757326E+00
   s   1
  0.161277759E+00  0.100000000E+01
 
   6
   s   3
  0.187311370E+02  0.334946043E-01
  0.282539437E+01  0.234726954E+00
  0.640121692E+00  0.813757326E+00
   s   1
  0.161277759E+00  0.100000000E+01
 
   7
   s   3
  0.187311370E+02  0.334946043E-01
  0.282539437E+01  0.234726954E+00
  0.640121692E+00  0.813757326E+00
   s   1
  0.161277759E+00  0.100000000E+01
 
   8
   s   3
  0.187311370E+02  0.334946043E-01
  0.282539437E+01  0.234726954E+00
  0.640121692E+00  0.813757326E+00
   s   1
  0.161277759E+00  0.100000000E+01
 
   9
   s   3
  0.187311370E+02  0.334946043E-01
  0.282539437E+01  0.234726954E+00
  0.640121692E+00  0.813757326E+00
   s   1
  0.161277759E+00  0.100000000E+01
 
  10
   s   3
  0.187311370E+02  0.334946043E-01
  0.282539437E+01  0.234726954E+00
  0.640121692E+00  0.813757326E+00
   s   1
  0.161277759E+00  0.100000000E+01
 
[MO]
Sym=     1a  
Ene=   -11.2370
Spin= Alpha
Occup=    2.00000
   1         0.04774021
   2         0.00099128
   3         0.00268692
   4        -0.00013438
   5        -0.00003709
   6        -0.00001980
   7         0.00127709
   8         0.00047736
   9         0.00025473
  10        -0.00021719
  11        -0.00023760
  12        -0.00021269
  13         0.00003012
  14         0.00001607
  15        -0.00002147
  16         0.70194546
  17         0.01943301
  18        -0.00637802
  19         0.00003914
  20         0.00005903
  21         0.00003150
  22         0.00113828
  23        -0.00008042
  24        -0.00004291
  25        -0.00126487
  26        -0.00171709
  27        -0.00175071
  28        -0.00005334
  29        -0.00002847
  30         0.00002897
  31         0.70257508
  32         0.01945030
  33        -0.00638817
  34        -0.00003916
  35        -0.00005921
  36        -0.00003160
  37        -0.00113805
  38         0.00008164
  39         0.00004356
  40        -0.00126561
  41        -0.00171802
  42        -0.00175199
  43        -0.00005318
  44        -0.00002838
  45         0.00002927
  46         0.04778517
  47         0.00099242
  48         0.00268919
  49         0.00013449
  50         0.00003707
  51         0.00001978
  52        -0.00127805
  53        -0.00047757
  54        -0.00025485
  55        -0.00021751
  56        -0.00023785
  57        -0.00021284
  58         0.00003014
  59         0.00001608
  60        -0.00002155
  61        -0.00018566
  62         0.00103404
  63        -0.00010989
  64        -0.00017149
  65        -0.00001849
  66         0.00028897
  67        -0.00001847
  68         0.00028897
  69        -0.00010985
  70        -0.00017142
  71        -0.00018563
  72         0.00103276
Sym=     2a  
Ene=   -11.2370
Spin= Alpha
Occup=    2.00000
   1        -0.05172226
   2        -0.00131683
   3        -0.00251462
   4         0.00012062
   5        -0.00002371
   6        -0.00001265
   7        -0.00107459
   8        -0.00023736
   9        -0.00012666
  10         0.00036216
  11         0.00028046
  12         0.00017583
  13        -0.00001616
  14        -0.00000862
  15         0.00009014
  16        -0.70255149
  17        -0.01931530
  18         0.01132440
  19        -0.00003436
  20        -0.00020277
  21        -0.00010821
  22         0.00025833
  23         0.00136196
  24         0.00072678
  25         0.00083038
  26         0.00104211
  27         0.00143290
  28        -0.00017427
  29        -0.00009300
  30        -0.00033668
  31         0.70192203
  32         0.01929785
  33        -0.01131868
  34        -0.00003432
  35        -0.00020272
  36        -0.00010818
  37         0.00025933
  38         0.00136189
  39         0.00072675
  40        -0.00082924
  41        -0.00104057
  42        -0.00143133
  43         0.00017433
  44         0.00009303
  45         0.00033665
  46         0.05167834
  47         0.00131591
  48         0.00251223
  49         0.00012050
  50        -0.00002375
  51        -0.00001267
  52        -0.00107345
  53        -0.00023693
  54        -0.00012644
  55        -0.00036196
  56        -0.00028025
  57        -0.00017564
  58         0.00001613
  59         0.00000861
  60        -0.00009012
  61        -0.00004463
  62         0.00144185
  63        -0.00004072
  64        -0.00006965
  65        -0.00003038
  66        -0.00000282
  67         0.00003040
  68         0.00000256
  69         0.00004082
  70         0.00006980
  71         0.00004480
  72        -0.00144280
Sym=     3a  
Ene=   -11.2250
Spin= Alpha
Occup=    2.00000
   1         0.66465800
   2         0.01834582
   3        -0.00752415
   4         0.00003641
   5         0.00001833
   6         0.00000978
   7        -0.00036963
   8         0.00004196
   9         0.00002240
  10        -0.00108813
  11        -0.00140964
  12        -0.00160846
  13         0.00002978
  14         0.00001589
  15         0.00017129
  16        -0.04542758
  17        -0.00154098
  18         0.00291023
  19         0.00010133
  20         0.00000673
  21         0.00000359
  22        -0.00079654
  23        -0.00024041
  24        -0.00012830
  25        -0.00004875
  26        -0.00002346
  27         0.00003142
  28         0.00004046
  29         0.00002159
  30        -0.00004728
  31        -0.05088859
  32        -0.00170644
  33         0.00335246
  34        -0.00012093
  35        -0.00000325
  36        -0.00000173
  37         0.00095913
  38         0.00022474
  39         0.00011993
  40        -0.00006609
  41        -0.00003872
  42         0.00003246
  43         0.00003414
  44         0.00001822
  45        -0.00006133
  46         0.73816833
  47         0.02038042
  48        -0.00845578
  49        -0.00003889
  50        -0.00001941
  51        -0.00001036
  52         0.00046665
  53        -0.00001897
  54        -0.00001012
  55        -0.00120769
  56        -0.00156529
  57        -0.00178522
  58         0.00002921
  59         0.00001559
  60         0.00018948
  61        -0.00005365
  62        -0.00033977
  63        -0.00011776
  64         0.00159292
  65        -0.00011234
  66         0.00158180
  67        -0.00010192
  68         0.00143921
  69        -0.00011066
  70         0.00143744
  71        -0.00005315
  72        -0.00033452
Sym=     4a  
Ene=   -11.2250
Spin= Alpha
Occup=    2.00000
   1        -0.73791523
   2        -0.02042134
   3         0.00930488
   4        -0.00002560
   5        -0.00001137
   6        -0.00000607
   7         0.00094718
   8         0.00021777
   9         0.00011620
  10         0.00120051
  11         0.00156258
  12         0.00177499
  13         0.00000392
  14         0.00000209
  15        -0.00018301
  16         0.05462322
  17         0.00166360
  18        -0.00438229
  19        -0.00019280
  20         0.00003295
  21         0.00001758
  22         0.00159676
  23        -0.00013733
  24        -0.00007328
  25         0.00016836
  26         0.00014725
  27        -0.00001163
  28         0.00005835
  29         0.00003114
  30         0.00013687
  31        -0.04957280
  32        -0.00149332
  33         0.00405398
  34        -0.00018115
  35         0.00003347
  36         0.00001786
  37         0.00150472
  38        -0.00016171
  39        -0.00008629
  40        -0.00016234
  41        -0.00014399
  42         0.00000827
  43        -0.00006226
  44        -0.00003322
  45        -0.00013118
  46         0.66437708
  47         0.01839124
  48        -0.00846717
  49        -0.00002165
  50        -0.00000939
  51        -0.00000501
  52         0.00090334
  53         0.00022096
  54         0.00011791
  55        -0.00108016
  56        -0.00140663
  57        -0.00159709
  58        -0.00000701
  59        -0.00000374
  60         0.00016409
  61        -0.00000194
  62        -0.00003243
  63        -0.00006170
  64         0.00140359
  65        -0.00009377
  66         0.00128082
  67         0.00010500
  68        -0.00143919
  69         0.00007368
  70        -0.00156245
  71         0.00000754
  72         0.00006778
Sym=     5a  
Ene=    -1.0846
Spin= Alpha
Occup=    2.00000
   1        -0.09055580
   2         0.17036658
   3         0.13701117
   4         0.07737898
   5         0.01004992
   6         0.00536277
   7         0.01129829
   8         0.00080038
   9         0.00042706
  10         0.01113373
  11        -0.00032761
  12        -0.00538638
  13         0.00099187
  14         0.00052933
  15         0.00435833
  16        -0.13177872
  17         0.25299811
  18         0.16631122
  19        -0.02418424
  20         0.04042965
  21         0.02157449
  22         0.01637008
  23         0.00019769
  24         0.00010527
  25         0.01076600
  26         0.00480386
  27        -0.00660213
  28         0.00346528
  29         0.00184912
  30         0.00982680
  31        -0.13177816
  32         0.25299707
  33         0.16631034
  34         0.02418451
  35        -0.04043037
  36        -0.02157505
  37        -0.01636990
  38        -0.00019750
  39        -0.00010526
  40         0.01076592
  41         0.00480390
  42        -0.00660212
  43         0.00346539
  44         0.00184922
  45         0.00982675
  46        -0.09055541
  47         0.17036585
  48         0.13701060
  49        -0.07737894
  50        -0.01004976
  51        -0.00536288
  52        -0.01129827
  53        -0.00080060
  54        -0.00042724
  55         0.01113368
  56        -0.00032766
  57        -0.00538632
  58         0.00099193
  59         0.00052933
  60         0.00435834
  61         0.06434554
  62         0.00616800
  63         0.04480369
  64         0.00726236
  65         0.03994894
  66         0.00465463
  67         0.03994912
  68         0.00465454
  69         0.04480412
  70         0.00726247
  71         0.06434680
  72         0.00616812
Sym=     6a  
Ene=    -0.9951
Spin= Alpha
Occup=    2.00000
   1         0.12721630
   2        -0.24033428
   3        -0.19625834
   4        -0.07126752
   5         0.00235453
   6         0.00125690
   7        -0.00354166
   8        -0.00680279
   9        -0.00363009
  10        -0.01284102
  11        -0.00239200
  12         0.00692109
  13         0.00003715
  14         0.00001977
  15        -0.00802361
  16         0.08611630
  17        -0.16679333
  18        -0.11770361
  19         0.13085024
  20         0.03884400
  21         0.02072897
  22         0.02296476
  23         0.02060663
  24         0.01099662
  25        -0.01055728
  26         0.00500573
  27         0.00551691
  28         0.00545744
  29         0.00291234
  30        -0.00044053
  31        -0.08611679
  32         0.16679430
  33         0.11770429
  34         0.13085078
  35         0.03884355
  36         0.02072859
  37         0.02296440
  38         0.02060686
  39         0.01099670
  40         0.01055735
  41        -0.00500571
  42        -0.00551696
  43        -0.00545738
  44        -0.00291230
  45         0.00044053
  46        -0.12721659
  47         0.24033483
  48         0.19625914
  49        -0.07126831
  50         0.00235488
  51         0.00125678
  52        -0.00354189
  53        -0.00680287
  54        -0.00363028
  55         0.01284104
  56         0.00239192
  57        -0.00692104
  58        -0.00003705
  59        -0.00001977
  60         0.00802366
  61         0.04542666
  62         0.00530063
  63         0.06992000
  64         0.01153993
  65         0.07468055
  66         0.02045456
  67        -0.07468038
  68        -0.02045445
  69        -0.06992033
  70        -0.01153999
  71        -0.04542688
  72        -0.00530075
Sym=     7a  
Ene=    -0.8131
Spin= Alpha
Occup=    2.00000
   1        -0.10720035
   2         0.20693221
   3         0.20467850
   4        -0.09069776
   5        -0.02715779
   6        -0.01449315
   7        -0.03840649
   8        -0.01156879
   9        -0.00617387
  10         0.00219065
  11         0.01152306
  12        -0.00332513
  13        -0.00122847
  14        -0.00065544
  15         0.01279238
  16         0.07267729
  17        -0.14557952
  18        -0.13523643
  19        -0.14768029
  20        -0.07379577
  21        -0.03937991
  22        -0.04980755
  23        -0.01132147
  24        -0.00604130
  25         0.00499404
  26        -0.01288919
  27         0.00076124
  28        -0.00162962
  29        -0.00086951
  30        -0.01176045
  31         0.07267516
  32        -0.14557529
  33        -0.13523278
  34         0.14767807
  35         0.07379951
  36         0.03938201
  37         0.04980643
  38         0.01132264
  39         0.00604201
  40         0.00499421
  41        -0.01288913
  42         0.00076115
  43        -0.00162992
  44        -0.00086972
  45        -0.01176026
  46        -0.10719914
  47         0.20692982
  48         0.20467672
  49         0.09069477
  50         0.02715998
  51         0.01449379
  52         0.03840542
  53         0.01156926
  54         0.00617391
  55         0.00219066
  56         0.01152277
  57        -0.00332502
  58        -0.00122834
  59        -0.00065547
  60         0.01279224
  61        -0.06463756
  62        -0.02144929
  63         0.10165404
  64         0.04447552
  65         0.12189230
  66         0.05227887
  67         0.12189303
  68         0.05227913
  69         0.10165720
  70         0.04447693
  71        -0.06464229
  72        -0.02145109
Sym=     8a  
Ene=    -0.7514
Spin= Alpha
Occup=    2.00000
   1        -0.04958072
   2         0.09647197
   3         0.09967043
   4        -0.12464549
   5         0.06713196
   6         0.03582409
   7        -0.04567692
   8         0.01942649
   9         0.01036665
  10        -0.00254624
  11         0.01017537
  12        -0.00044030
  13        -0.00120391
  14        -0.00064235
  15         0.00914575
  16         0.08373120
  17        -0.16420947
  18        -0.17157082
  19        -0.07607340
  20         0.14320211
  21         0.07641971
  22        -0.03997721
  23         0.05240576
  24         0.02796634
  25        -0.00443600
  26        -0.00430765
  27         0.00356527
  28         0.00961772
  29         0.00513259
  30        -0.00678323
  31        -0.08373323
  32         0.16421346
  33         0.17157561
  34        -0.07607582
  35         0.14319637
  36         0.07641628
  37        -0.03997887
  38         0.05240501
  39         0.02796574
  40         0.00443589
  41         0.00430803
  42        -0.00356533
  43        -0.00961738
  44        -0.00513232
  45         0.00678342
  46         0.04958298
  47        -0.09647629
  48        -0.09967513
  49        -0.12464820
  50         0.06712875
  51         0.03582304
  52        -0.04567817
  53         0.01942530
  54         0.01036626
  55         0.00254627
  56        -0.01017562
  57         0.00044024
  58         0.00120383
  59         0.00064241
  60        -0.00914615
  61         0.16708939
  62         0.08548157
  63        -0.11477265
  64        -0.06522868
  65        -0.04173409
  66        -0.02012709
  67         0.04172993
  68         0.02012497
  69         0.11477144
  70         0.06522781
  71        -0.16709064
  72        -0.08548240
Sym=     9a  
Ene=    -0.6339
Spin= Alpha
Occup=    2.00000
   1         0.01764785
   2        -0.03350537
   3        -0.05918620
   4         0.25090151
   5         0.13402713
   6         0.07152363
   7         0.09711355
   8         0.06519851
   9         0.03479313
  10         0.00882362
  11        -0.01543924
  12        -0.00280937
  13        -0.00447536
  14        -0.00238829
  15        -0.01088136
  16        -0.03355447
  17         0.07095946
  18         0.04215457
  19        -0.20589578
  20         0.07271816
  21         0.03880667
  22        -0.06712237
  23         0.01999622
  24         0.01067130
  25         0.00179451
  26        -0.00648047
  27        -0.00254094
  28        -0.00291136
  29        -0.00155358
  30        -0.00339418
  31         0.03355528
  32        -0.07096083
  33        -0.04215573
  34        -0.20590187
  35         0.07268824
  36         0.03879041
  37        -0.06712220
  38         0.01998495
  39         0.01066519
  40        -0.00179465
  41         0.00648034
  42         0.00254097
  43         0.00291252
  44         0.00155421
  45         0.00339396
  46        -0.01764899
  47         0.03350746
  48         0.05918863
  49         0.25091231
  50         0.13400048
  51         0.07150916
  52         0.09711830
  53         0.06518655
  54         0.03478668
  55        -0.00882380
  56         0.01543970
  57         0.00280942
  58         0.00447431
  59         0.00238770
  60         0.01088174
  61         0.07074121
  62         0.05589287
  63         0.02838421
  64         0.02368759
  65         0.16781761
  66         0.11305196
  67        -0.16782882
  68        -0.11305922
  69        -0.02836553
  70        -0.02367535
  71        -0.07075695
  72        -0.05590271
Sym=    10a  
Ene=    -0.6337
Spin= Alpha
Occup=    2.00000
   1         0.00737129
   2        -0.01324851
   3        -0.01635840
   4         0.09896616
   5        -0.20404978
   6        -0.10888938
   7         0.04170187
   8        -0.09119005
   9        -0.04866276
  10         0.00148048
  11        -0.00423188
  12        -0.00039646
  13         0.00911210
  14         0.00486256
  15        -0.00330406
  16        -0.00832033
  17         0.01405567
  18         0.01610860
  19        -0.06239387
  20        -0.21123443
  21        -0.11272388
  22        -0.00312460
  23        -0.08157770
  24        -0.04353354
  25         0.00159430
  26         0.00061918
  27        -0.00045484
  28        -0.00680856
  29        -0.00363338
  30         0.00092567
  31        -0.00831664
  32         0.01404752
  33         0.01610551
  34         0.06236582
  35         0.21124568
  36         0.11272976
  37         0.00311513
  38         0.08158121
  39         0.04353538
  40         0.00159414
  41         0.00062021
  42        -0.00045456
  43        -0.00680827
  44        -0.00363317
  45         0.00092619
  46         0.00736949
  47        -0.01324499
  48        -0.01635229
  49        -0.09893375
  50         0.20406742
  51         0.10889994
  52        -0.04168941
  53         0.09119884
  54         0.04866792
  55         0.00147933
  56        -0.00422986
  57        -0.00039625
  58         0.00911258
  59         0.00486293
  60        -0.00330283
  61         0.10403412
  62         0.06422095
  63        -0.15007493
  64        -0.09883441
  65         0.08266641
  66         0.05316072
  67         0.08264484
  68         0.05314629
  69        -0.15007776
  70        -0.09883655
  71         0.10402275
  72         0.06421180
Sym=    11a  
Ene=    -0.5464
Spin= Alpha
Occup=    2.00000
   1         0.02173128
   2        -0.04773431
   3        -0.02174852
   4        -0.28591451
   5        -0.04562158
   6        -0.02434725
   7        -0.10728671
   8        -0.01300696
   9        -0.00694181
  10        -0.00869077
  11         0.01418154
  12         0.00383748
  13        -0.00018449
  14        -0.00009847
  15         0.00891189
  16         0.00260589
  17        -0.00652822
  18         0.02032106
  19         0.30288407
  20        -0.03241936
  21        -0.01730262
  22         0.13092378
  23        -0.02666673
  24        -0.01423168
  25        -0.01551424
  26         0.01839929
  27         0.00455516
  28        -0.00845631
  29        -0.00451268
  30         0.01192752
  31         0.00260991
  32        -0.00653642
  33         0.02031194
  34        -0.30285204
  35         0.03240679
  36         0.01729427
  37        -0.13091089
  38         0.02665318
  39         0.01422361
  40        -0.01551430
  41         0.01839852
  42         0.00455516
  43        -0.00845287
  44        -0.00451083
  45         0.01192680
  46         0.02173017
  47        -0.04773179
  48        -0.02174934
  49         0.28588897
  50         0.04567774
  51         0.02437588
  52         0.10727605
  53         0.01303945
  54         0.00695844
  55        -0.00869073
  56         0.01418092
  57         0.00383738
  58        -0.00017940
  59        -0.00009574
  60         0.00891154
  61         0.13178701
  62         0.11053989
  63         0.06062841
  64         0.05993174
  65         0.09716533
  66         0.09026028
  67         0.09713503
  68         0.09023805
  69         0.06067146
  70         0.05996413
  71         0.13181165
  72         0.11055567
Sym=    12a  
Ene=    -0.5409
Spin= Alpha
Occup=    2.00000
   1         0.00479594
   2        -0.01130312
   3         0.00433651
   4        -0.11465455
   5         0.23122335
   6         0.12338973
   7        -0.04875565
   8         0.13716936
   9         0.07319896
  10        -0.00057879
  11         0.00290923
  12         0.00078147
  13        -0.02150198
  14        -0.01147439
  15         0.00183277
  16        -0.01790259
  17         0.03520890
  18         0.04374736
  19         0.14410307
  20        -0.06230483
  21        -0.03324996
  22         0.05867823
  23        -0.06593976
  24        -0.03518897
  25        -0.00008031
  26         0.00417187
  27         0.00017046
  28        -0.01441904
  29        -0.00769467
  30         0.00344763
  31         0.01790235
  32        -0.03520803
  33        -0.04375351
  34         0.14417474
  35        -0.06230714
  36        -0.03325016
  37         0.05870944
  38        -0.06594394
  39        -0.03519070
  40         0.00008408
  41        -0.00417629
  42        -0.00017151
  43         0.01442041
  44         0.00769546
  45        -0.00345039
  46        -0.00480102
  47         0.01131451
  48        -0.00433192
  49        -0.11472176
  50         0.23120841
  51         0.12338390
  52        -0.04878122
  53         0.13716427
  54         0.07319737
  55         0.00058089
  56        -0.00291253
  57        -0.00078257
  58         0.02150149
  59         0.01147422
  60        -0.00183505
  61        -0.11094584
  62        -0.07494415
  63        -0.18250313
  64        -0.13860119
  65         0.12435901
  66         0.09098883
  67        -0.12438449
  68        -0.09101263
  69         0.18249105
  70         0.13858833
  71         0.11091825
  72         0.07492013
Sym=    13a  
Ene=    -0.4925
Spin= Alpha
Occup=    2.00000
   1        -0.00135040
   2         0.00343267
   3         0.01442783
   4         0.03890675
   5         0.17495934
   6         0.09336455
   7         0.02833968
   8         0.11331505
   9         0.06046903
  10         0.00320434
  11        -0.00352595
  12        -0.00087638
  13        -0.02270067
  14        -0.01211416
  15        -0.00228301
  16         0.01502690
  17        -0.03361867
  18        -0.04393194
  19        -0.06161760
  20        -0.25431054
  21        -0.13571306
  22         0.00651015
  23        -0.14436927
  24        -0.07704313
  25         0.00385491
  26        -0.00054305
  27         0.00003975
  28        -0.02390903
  29        -0.01275889
  30        -0.00050175
  31         0.01502667
  32        -0.03361849
  33        -0.04393104
  34         0.06161432
  35         0.25431411
  36         0.13571054
  37        -0.00651155
  38         0.14437288
  39         0.07704233
  40         0.00385491
  41        -0.00054285
  42         0.00003982
  43        -0.02390922
  44        -0.01275910
  45        -0.00050160
  46        -0.00135026
  47         0.00343220
  48         0.01442804
  49        -0.03890396
  50        -0.17496108
  51        -0.09336937
  52        -0.02833823
  53        -0.11331675
  54        -0.06047241
  55         0.00320427
  56        -0.00352593
  57        -0.00087624
  58        -0.02270110
  59        -0.01211422
  60        -0.00228285
  61         0.14281512
  62         0.12342851
  63         0.11403925
  64         0.10482805
  65        -0.14166684
  66        -0.11976829
  67        -0.14166525
  68        -0.11976740
  69         0.11403588
  70         0.10482516
  71         0.14281206
  72         0.12342555
Sym=    14a  
Ene=    -0.4365
Spin= Alpha
Occup=    2.00000
   1        -0.00000015
   2         0.00000025
   3         0.00000101
   4        -0.00000151
   5        -0.10503995
   6         0.19683827
   7        -0.00000069
   8        -0.07882453
   9         0.14771276
  10        -0.00000000
  11        -0.00123992
  12         0.00123994
  13        -0.00843068
  14         0.01579791
  15         0.00095951
  16        -0.00000020
  17         0.00000038
  18         0.00000043
  19         0.00000184
  20        -0.13818070
  21         0.25893363
  22         0.00000123
  23        -0.09762688
  24         0.18293981
  25         0.00000003
  26        -0.00602954
  27         0.00602954
  28         0.00447651
  29        -0.00838894
  30         0.00466579
  31         0.00000039
  32        -0.00000084
  33        -0.00000082
  34         0.00000107
  35        -0.13817704
  36         0.25893555
  37         0.00000023
  38        -0.09762444
  39         0.18294092
  40        -0.00000005
  41         0.00602966
  42        -0.00602958
  43        -0.00447694
  44         0.00838879
  45        -0.00466579
  46         0.00000005
  47        -0.00000007
  48        -0.00000022
  49        -0.00000028
  50        -0.10504268
  51         0.19683687
  52        -0.00000024
  53        -0.07882662
  54         0.14771173
  55         0.00000001
  56         0.00123992
  57        -0.00123993
  58         0.00843038
  59        -0.01579810
  60        -0.00095947
  61         0.00000116
  62         0.00000128
  63         0.00000068
  64         0.00000091
  65        -0.00000083
  66        -0.00000091
  67        -0.00000076
  68        -0.00000044
  69         0.00000099
  70         0.00000104
  71         0.00000110
  72         0.00000110
Sym=    15a  
Ene=    -0.3173
Spin= Alpha
Occup=    2.00000
   1         0.00000013
   2        -0.00000022
   3         0.00000024
   4         0.00000185
   5         0.14331815
   6        -0.26856579
   7         0.00000161
   8         0.13078123
   9        -0.24507246
  10         0.00000002
  11         0.00009942
  12        -0.00009944
  13         0.00816953
  14        -0.01530891
  15        -0.00007697
  16         0.00000028
  17        -0.00000045
  18        -0.00000224
  19        -0.00000199
  20         0.11044065