[Molden Format]
[Title]
 Molden file created by orca_2mkl for BaseName=butanol1

[Atoms] AU
C    1   6        -13.6565783383         5.0162780225         0.2173185054 
C    2   6        -10.7733286895         4.9900675210         0.1854577228 
H    3   1        -14.3348577396         6.8357630360         1.0126286461 
H    4   1        -14.3874488179         3.4486935026         1.4070900793 
H    5   1        -14.4098042780         4.8123576754        -1.7315749538 
H    6   1        -10.0715599924         5.2386987885         2.1504138541 
H    7   1        -10.0935564046         6.5993960912        -0.9821473636 
C    8   6         -9.7625519750         2.5031312370        -0.9023442289 
H    9   1        -10.4466706300         0.8960514409         0.2667537411 
C   10   6         -6.8708930448         2.4803033453        -0.9326743334 
H   11   1        -10.4709347135         2.2597723055        -2.8660531410 
H   12   1         -6.1392099831         2.7099050706         1.0216804343 
H   13   1         -6.1177048996         4.0816194767        -2.0739555347 
O   14   8         -5.9803785015         0.1765949072        -1.8888568599 
H   15   1         -6.1531750592         0.2656954944        -3.7550370062 
[GTO]
  1 0
s   8 1.0 
     8236.0000000000         0.3342267437
     1235.0000000000         0.6230746416
      280.8000000000         1.0531059072
       79.2700000000         1.5831631342
       25.5900000000         1.9450988312
        8.9970000000         1.6429469100
        3.3190000000         0.6196591261
        0.3643000000        -0.0030667276
s   8 1.0 
     8236.0000000000        -0.1210101098
     1235.0000000000        -0.2265691066
      280.8000000000        -0.3857532897
       79.2700000000        -0.5967016836
       25.5900000000        -0.7858351262
        8.9970000000        -0.8165330321
        3.3190000000        -0.5188700868
        0.3643000000         0.3477346660
s   1 1.0 
        0.9059000000         0.6617901318
s   1 1.0 
        0.1285000000         0.1529633682
p   3 1.0 
       18.7100000000         2.1868515589
        4.1330000000         2.0503123413
        1.2000000000         1.4599445297
p   1 1.0 
        0.3827000000         0.4290551959
p   1 1.0 
        0.1209000000         0.1016185431
d   1 1.0 
        1.0970000000         3.3522135855
d   1 1.0 
        0.3180000000         0.3838994974
f   1 1.0 
        0.7610000000         3.0840084332

  2 0
s   8 1.0 
     8236.0000000000         0.3342267437
     1235.0000000000         0.6230746416
      280.8000000000         1.0531059072
       79.2700000000         1.5831631342
       25.5900000000         1.9450988312
        8.9970000000         1.6429469100
        3.3190000000         0.6196591261
        0.3643000000        -0.0030667276
s   8 1.0 
     8236.0000000000        -0.1210101098
     1235.0000000000        -0.2265691066
      280.8000000000        -0.3857532897
       79.2700000000        -0.5967016836
       25.5900000000        -0.7858351262
        8.9970000000        -0.8165330321
        3.3190000000        -0.5188700868
        0.3643000000         0.3477346660
s   1 1.0 
        0.9059000000         0.6617901318
s   1 1.0 
        0.1285000000         0.1529633682
p   3 1.0 
       18.7100000000         2.1868515589
        4.1330000000         2.0503123413
        1.2000000000         1.4599445297
p   1 1.0 
        0.3827000000         0.4290551959
p   1 1.0 
        0.1209000000         0.1016185431
d   1 1.0 
        1.0970000000         3.3522135855
d   1 1.0 
        0.3180000000         0.3838994974
f   1 1.0 
        0.7610000000         3.0840084332

  3 0
s   3 1.0 
       33.8700000000         0.2551080577
        5.0950000000         0.4600978881
        1.1590000000         0.6784140671
s   1 1.0 
        0.3258000000         0.3073430538
s   1 1.0 
        0.1027000000         0.1292968442
p   1 1.0 
        1.4070000000         2.1842769845
p   1 1.0 
        0.3880000000         0.4364954740
d   1 1.0 
        1.0570000000         3.1412413909

  4 0
s   3 1.0 
       33.8700000000         0.2551080577
        5.0950000000         0.4600978881
        1.1590000000         0.6784140671
s   1 1.0 
        0.3258000000         0.3073430538
s   1 1.0 
        0.1027000000         0.1292968442
p   1 1.0 
        1.4070000000         2.1842769845
p   1 1.0 
        0.3880000000         0.4364954740
d   1 1.0 
        1.0570000000         3.1412413909

  5 0
s   3 1.0 
       33.8700000000         0.2551080577
        5.0950000000         0.4600978881
        1.1590000000         0.6784140671
s   1 1.0 
        0.3258000000         0.3073430538
s   1 1.0 
        0.1027000000         0.1292968442
p   1 1.0 
        1.4070000000         2.1842769845
p   1 1.0 
        0.3880000000         0.4364954740
d   1 1.0 
        1.0570000000         3.1412413909

  6 0
s   3 1.0 
       33.8700000000         0.2551080577
        5.0950000000         0.4600978881
        1.1590000000         0.6784140671
s   1 1.0 
        0.3258000000         0.3073430538
s   1 1.0 
        0.1027000000         0.1292968442
p   1 1.0 
        1.4070000000         2.1842769845
p   1 1.0 
        0.3880000000         0.4364954740
d   1 1.0 
        1.0570000000         3.1412413909

  7 0
s   3 1.0 
       33.8700000000         0.2551080577
        5.0950000000         0.4600978881
        1.1590000000         0.6784140671
s   1 1.0 
        0.3258000000         0.3073430538
s   1 1.0 
        0.1027000000         0.1292968442
p   1 1.0 
        1.4070000000         2.1842769845
p   1 1.0 
        0.3880000000         0.4364954740
d   1 1.0 
        1.0570000000         3.1412413909

  8 0
s   8 1.0 
     8236.0000000000         0.3342267437
     1235.0000000000         0.6230746416
      280.8000000000         1.0531059072
       79.2700000000         1.5831631342
       25.5900000000         1.9450988312
        8.9970000000         1.6429469100
        3.3190000000         0.6196591261
        0.3643000000        -0.0030667276
s   8 1.0 
     8236.0000000000        -0.1210101098
     1235.0000000000        -0.2265691066
      280.8000000000        -0.3857532897
       79.2700000000        -0.5967016836
       25.5900000000        -0.7858351262
        8.9970000000        -0.8165330321
        3.3190000000        -0.5188700868
        0.3643000000         0.3477346660
s   1 1.0 
        0.9059000000         0.6617901318
s   1 1.0 
        0.1285000000         0.1529633682
p   3 1.0 
       18.7100000000         2.1868515589
        4.1330000000         2.0503123413
        1.2000000000         1.4599445297
p   1 1.0 
        0.3827000000         0.4290551959
p   1 1.0 
        0.1209000000         0.1016185431
d   1 1.0 
        1.0970000000         3.3522135855
d   1 1.0 
        0.3180000000         0.3838994974
f   1 1.0 
        0.7610000000         3.0840084332

  9 0
s   3 1.0 
       33.8700000000         0.2551080577
        5.0950000000         0.4600978881
        1.1590000000         0.6784140671
s   1 1.0 
        0.3258000000         0.3073430538
s   1 1.0 
        0.1027000000         0.1292968442
p   1 1.0 
        1.4070000000         2.1842769845
p   1 1.0 
        0.3880000000         0.4364954740
d   1 1.0 
        1.0570000000         3.1412413909

 10 0
s   8 1.0 
     8236.0000000000         0.3342267437
     1235.0000000000         0.6230746416
      280.8000000000         1.0531059072
       79.2700000000         1.5831631342
       25.5900000000         1.9450988312
        8.9970000000         1.6429469100
        3.3190000000         0.6196591261
        0.3643000000        -0.0030667276
s   8 1.0 
     8236.0000000000        -0.1210101098
     1235.0000000000        -0.2265691066
      280.8000000000        -0.3857532897
       79.2700000000        -0.5967016836
       25.5900000000        -0.7858351262
        8.9970000000        -0.8165330321
        3.3190000000        -0.5188700868
        0.3643000000         0.3477346660
s   1 1.0 
        0.9059000000         0.6617901318
s   1 1.0 
        0.1285000000         0.1529633682
p   3 1.0 
       18.7100000000         2.1868515589
        4.1330000000         2.0503123413
        1.2000000000         1.4599445297
p   1 1.0 
        0.3827000000         0.4290551959
p   1 1.0 
        0.1209000000         0.1016185431
d   1 1.0 
        1.0970000000         3.3522135855
d   1 1.0 
        0.3180000000         0.3838994974
f   1 1.0 
        0.7610000000         3.0840084332

 11 0
s   3 1.0 
       33.8700000000         0.2551080577
        5.0950000000         0.4600978881
        1.1590000000         0.6784140671
s   1 1.0 
        0.3258000000         0.3073430538
s   1 1.0 
        0.1027000000         0.1292968442
p   1 1.0 
        1.4070000000         2.1842769845
p   1 1.0 
        0.3880000000         0.4364954740
d   1 1.0 
        1.0570000000         3.1412413909

 12 0
s   3 1.0 
       33.8700000000         0.2551080577
        5.0950000000         0.4600978881
        1.1590000000         0.6784140671
s   1 1.0 
        0.3258000000         0.3073430538
s   1 1.0 
        0.1027000000         0.1292968442
p   1 1.0 
        1.4070000000         2.1842769845
p   1 1.0 
        0.3880000000         0.4364954740
d   1 1.0 
        1.0570000000         3.1412413909

 13 0
s   3 1.0 
       33.8700000000         0.2551080577
        5.0950000000         0.4600978881
        1.1590000000         0.6784140671
s   1 1.0 
        0.3258000000         0.3073430538
s   1 1.0 
        0.1027000000         0.1292968442
p   1 1.0 
        1.4070000000         2.1842769845
p   1 1.0 
        0.3880000000         0.4364954740
d   1 1.0 
        1.0570000000         3.1412413909

 14 0
s   8 1.0 
    15330.0000000000         0.5107820689
     2299.0000000000         0.9520320559
      522.4000000000         1.6143309227
      147.3000000000         2.4433650471
       47.5500000000         3.0486061870
       16.7600000000         2.6183461361
        6.2070000000         1.0052339944
        0.6882000000        -0.0044964733
s   8 1.0 
    15330.0000000000        -0.1936657939
     2299.0000000000        -0.3632249960
      522.4000000000        -0.6192189910
      147.3000000000        -0.9677187516
       47.5500000000        -1.2940243602
       16.7600000000        -1.3817163263
        6.2070000000        -0.8447542687
        0.6882000000         0.5573175589
s   1 1.0 
        1.7520000000         1.0853271534
s   1 1.0 
        0.2384000000         0.2431586819
p   3 1.0 
       34.4600000000         4.8988750613
        7.7490000000         4.7502609215
        2.2800000000         3.2044979545
p   1 1.0 
        0.7156000000         0.9381623559
p   1 1.0 
        0.2140000000         0.2074709543
d   1 1.0 
        2.3140000000        12.3767310624
d   1 1.0 
        0.6450000000         1.3234257612
f   1 1.0 
        1.4280000000        12.7097950062

 15 0
s   3 1.0 
       33.8700000000         0.2551080577
        5.0950000000         0.4600978881
        1.1590000000         0.6784140671
s   1 1.0 
        0.3258000000         0.3073430538
s   1 1.0 
        0.1027000000         0.1292968442
p   1 1.0 
        1.4070000000         2.1842769845
p   1 1.0 
        0.3880000000         0.4364954740
d   1 1.0 
        1.0570000000         3.1412413909

[5D]
[7F]
[9G]
[MO]
 Sym=     1a
 Ene= -2.05522193463157E+01
 Spin= Alpha
 Occup= 2.000000
  1      -0.000015415416
  2      -0.000027731720
  3       0.000007071779
  4       0.000155242241
  5       0.000010313990
  6       0.000006747699
  7       0.000003112185
  8      -0.000095595126
  9      -0.000044030776
 10      -0.000017403243
 11       0.000093930760
 12       0.000115301691
 13       0.000053042520
 14       0.000006027402
 15       0.000000239124
 16      -0.000002634387
 17      -0.000005428256
 18      -0.000000101559
 19       0.000018702083
 20      -0.000039677768
 21      -0.000006404500
 22      -0.000026056224
 23      -0.000076310186
 24       0.000001481368
 25       0.000001912517
 26       0.000002106909
 27      -0.000006501506
 28      -0.000002621094
 29      -0.000001424407
 30       0.000010804744
 31      -0.000099092082
 32      -0.000193715734
 33      -0.000031773659
 34       0.001136836770
 35      -0.000006905440
 36      -0.000001897160
 37      -0.000000245374
 38      -0.000032023392
 39       0.000189588231
 40       0.000077685328
 41       0.000732576504
 42      -0.000387683012
 43      -0.000180096648
 44       0.000011527731
 45       0.000017717434
 46      -0.000010807334
 47      -0.000003414342
 48       0.000037142703
 49      -0.000017868821
 50      -0.000072827206
 51      -0.000027172104
 52       0.000087125566
 53      -0.000130063770
 54       0.000007717939
 55       0.000012937333
 56       0.000004096385
 57       0.000005373451
 58       0.000001127595
 59       0.000019620002
 60      -0.000000207853
 61      -0.000000739171
 62      -0.000046780844
 63       0.000017440142
 64      -0.000006361775
 65       0.000000453592
 66       0.000000202797
 67       0.000047472803
 68       0.000016580440
 69       0.000006612121
 70      -0.000003098745
 71      -0.000001630465
 72      -0.000000055415
 73       0.000006171630
 74      -0.000004278857
 75      -0.000000653549
 76      -0.000005023730
 77       0.000045957409
 78       0.000003832394
 79      -0.000000248893
 80       0.000005947207
 81      -0.000023273965
 82      -0.000017447808
 83      -0.000016925014
 84       0.000003574266
 85       0.000005271182
 86       0.000001915836
 87       0.000001768360
 88       0.000000303194
 89      -0.000000466912
 90       0.000004112540
 91       0.000053689049
 92       0.000003645002
 93       0.000004228069
 94      -0.000004585108
 95      -0.000022371560
 96      -0.000024170360
 97       0.000004545143
 98      -0.000001522307
 99      -0.000003006963
100      -0.000003857704
101      -0.000001280504
102       0.000003633204
103       0.000024056180
104      -0.000220440488
105      -0.000020945483
106       0.000012956888
107       0.000006453331
108       0.000005183901
109      -0.000035106498
110       0.000007823743
111       0.000055027032
112      -0.000005377137
113      -0.000000225826
114       0.000000332078
115      -0.000009768016
116      -0.000000855657
117       0.000023755010
118      -0.000236151621
119      -0.000029611273
120       0.000013146394
121       0.000008653560
122       0.000000752880
123      -0.000041608012
124       0.000054982008
125      -0.000033441235
126       0.000003545503
127      -0.000001078035
128       0.000009976388
129      -0.000002293171
130       0.000000581854
131      -0.000009230581
132      -0.000015646001
133      -0.000002565533
134      -0.001554496935
135       0.000005902249
136       0.000000751324
137      -0.000000001275
138      -0.000094606406
139      -0.000008109002
140      -0.000007238661
141      -0.000409610077
142      -0.000399279313
143      -0.000183177723
144       0.000022093278
145       0.000018399128
146      -0.000031385146
147       0.000015396646
148       0.000045128677
149      -0.000148051235
150      -0.000094059383
151       0.000190211857
152      -0.000085592089
153      -0.000251789607
154       0.000016605741
155      -0.000005625760
156       0.000008141289
157      -0.000002435488
158      -0.000003572415
159       0.000000780937
160       0.000021862781
161       0.000036569463
162       0.000103612085
163      -0.000128948905
164       0.000017177666
165       0.000001060521
166      -0.000006144520
167      -0.000088057134
168       0.000064967906
169       0.000058087309
170       0.000002884388
171       0.000027626033
172       0.000006495894
173      -0.000012953064
174       0.000005096956
175      -0.000334008308
176      -0.000679392256
177       0.000291062541
178       0.002317020170
179       0.000008398838
180      -0.000090019959
181      -0.000051260876
182      -0.000241182003
183       0.001393360019
184       0.000776937643
185      -0.000124587041
186      -0.000591294710
187      -0.000202667336
188       0.000093747465
189       0.000074477473
190      -0.000154809677
191       0.000148902356
192       0.000156434064
193       0.000466172958
194       0.000190854081
195      -0.000595322415
196       0.000484520362
197       0.000354663233
198      -0.000100688915
199       0.000047013096
200       0.000004002324
201      -0.000132822791
202      -0.000149251371
203      -0.000159773862
204       0.000077418345
205       0.000032160181
206       0.000087889363
207      -0.000148138087
208       0.000016401568
209       0.000000908382
210       0.000003872051
211      -0.000079649431
212       0.000077955739
213      -0.000004228145
214      -0.000001076787
215      -0.000010881249
216       0.000004411163
217      -0.000013872236
218       0.000025270852
219       0.000013473366
220      -0.000858695517
221      -0.000123431883
222       0.000002464029
223      -0.000016070156
224       0.000010588472
225       0.000144252801
226       0.000153997632
227       0.000290274903
228      -0.000026364937
229      -0.000029037802
230       0.000023923017
231      -0.000041891339
232      -0.000030494425
233      -0.000004723117
234      -0.000546549235
235      -0.000083812867
236      -0.000002995382
237       0.000010743638
238      -0.000003329018
239       0.000076526605
240       0.000200071523
241       0.000019498107
242       0.000003102924
243      -0.000031740378
244       0.000022555271
245      -0.000033618156
246      -0.000034051025
247      -0.975456197252
248       0.001379081131
249      -0.043622555371
250      -0.002351274885
251       0.000676133788
252      -0.001462476057
253       0.000924009555
254      -0.000682829342
255       0.001460750176
256      -0.000546105846
257       0.000193990228
258      -0.000347133162
259      -0.000302372525
260      -0.000011510889
261      -0.000007424453
262       0.000020377600
263      -0.000008334706
264      -0.000002786878
265       0.000279565058
266      -0.000013332315
267       0.000196767448
268      -0.000308297785
269      -0.000290841740
270      -0.000092564503
271      -0.000012511902
272       0.000006665797
273      -0.000026216688
274      -0.000019176151
275      -0.000052222216
276       0.000022182769
277      -0.000429779257
278      -0.000891211362
279       0.000011142951
280      -0.000018377412
281      -0.000007497179
282      -0.000295264540
283      -0.000040484418
284      -0.000009418552
285      -0.000518417233
286       0.000033309829
287       0.000027201374
288      -0.000060440277
289       0.000015372258
290       0.000011084862
 Sym=     1a
 Ene= -1.12728875607864E+01
 Spin= Alpha
 Occup= 2.000000
  1       0.000003973956
  2       0.000040897417
  3      -0.000023336533
  4       0.001070391038
  5      -0.000018184075
  6      -0.000004100670
  7      -0.000001548936
  8       0.000192666280
  9      -0.000016115745
 10      -0.000009493518
 11       0.000515019126
 12      -0.000146415265
 13      -0.000061774565
 14      -0.000003786069
 15      -0.000001423849
 16       0.000000011080
 17       0.000007069397
 18      -0.000003243847
 19      -0.000053758050
 20       0.000029078519
 21      -0.000021679385
 22       0.000126531224
 23       0.000073408520
 24      -0.000003902514
 25      -0.000022261097
 26      -0.000003763122
 27       0.000001963566
 28       0.000006429860
 29      -0.000016412787
 30      -0.000010895502
 31       0.000080734962
 32       0.000030934485
 33       0.000017428313
 34      -0.000222683169
 35      -0.000025378101
 36      -0.000005395027
 37      -0.000001686785
 38       0.000235079271
 39      -0.000105380328
 40      -0.000048298839
 41       0.000884179804
 42       0.000018388246
 43      -0.000031260937
 44      -0.000019125138
 45      -0.000011317998
 46       0.000008271756
 47       0.000012414420
 48      -0.000026568401
 49       0.000121329445
 50       0.000001539980
 51       0.000015315542
 52      -0.000170433252
 53       0.000010512984
 54       0.000017078821
 55      -0.000018315651
 56       0.000010212204
 57      -0.000008796228
 58       0.000009287223
 59      -0.000014322507
 60       0.000038002788
 61       0.000008432843
 62       0.000050965956
 63       0.000114033970
 64       0.000001720494
 65       0.000002484259
 66       0.000001330318
 67      -0.000008663673
 68      -0.000037688424
 69      -0.000016586427
 70       0.000001346404
 71       0.000000364652
 72       0.000001364392
 73      -0.000004698958
 74       0.000000259914
 75       0.000003088613
 76      -0.000076415686
 77       0.000062950473
 78      -0.000008073601
 79       0.000000095585
 80       0.000003048318
 81       0.000045097585
 82      -0.000020185244
 83       0.000003373992
 84      -0.000003494873
 85      -0.000009248708
 86       0.000003347215
 87       0.000004558581
 88      -0.000003065826
 89       0.000003123241
 90      -0.000074938961
 91       0.000065090169
 92      -0.000007641586
 93       0.000002797332
 94      -0.000002456305
 95       0.000043242992
 96      -0.000012742804
 97      -0.000017070863
 98      -0.000006091277
 99       0.000004014496
100       0.000001123306
101       0.000003197537
102      -0.000009364230
103      -0.000027751640
104      -0.000046490354
105      -0.000099113773
106      -0.000003261786
107       0.000017770107
108       0.000006659960
109       0.000040982974
110      -0.000076744084
111      -0.000022955184
112       0.000010495225
113      -0.000017480907
114       0.000021376267
115       0.000005943511
116      -0.000013163504
117      -0.000024772406
118      -0.000035425292
119      -0.000128613308
120      -0.000003670883
121       0.000016270108
122       0.000008323971
123       0.000033511932
124      -0.000064568492
125      -0.000030902327
126      -0.000018759040
127       0.000001296507
128      -0.000010988532
129      -0.000008886307
130      -0.000021907306
131      -0.005732953551
132      -0.000073841305
133      -0.000475426099
134       0.002679236488
135      -0.000286564707
136      -0.000007558190
137      -0.000001517223
138       0.000338564428
139       0.000056929220
140       0.000061844465
141       0.001632832816
142      -0.000374243314
143      -0.000121389000
144      -0.000028885938
145      -0.000000992062
146       0.000013734589
147       0.000006365033
148      -0.000005368431
149      -0.000274124345
150       0.000048175215
151      -0.000048004288
152       0.000588591891
153       0.000221486296
154       0.000062727004
155      -0.000193880082
156       0.000024091880
157       0.000039758775
158       0.000009143221
159      -0.000243373791
160      -0.000013498532
161       0.000000009732
162       0.000038183506
163       0.000061133825
164       0.000029488682
165      -0.000019845426
166      -0.000009496080
167       0.000180300230
168       0.000030610106
169       0.000061311943
170      -0.000024383473
171      -0.000034092589
172       0.000020035680
173       0.000046833541
174       0.000032745939
175      -0.978820784387
176      -0.001800356847
177      -0.040722521448
178      -0.008260969798
179      -0.000398813333
180       0.000797998490
181       0.000407353708
182       0.000124448656
183      -0.001548678467
184      -0.000754710108
185       0.001325064159
186      -0.000646238205
187      -0.000361623155
188      -0.000114218498
189      -0.000028533697
190       0.000064732304
191       0.000059718178
192      -0.000075609686
193      -0.000320272254
194      -0.000162604377
195       0.000490190638
196      -0.000329408083
197      -0.000291197012
198      -0.000449977013
199      -0.000405550995
200      -0.000194416709
201      -0.000327157763
202       0.000066371461
203      -0.000424255953
204       0.000030042090
205      -0.000009123049
206       0.000131385603
207       0.000090839656
208       0.000025557683
209      -0.000016524891
210      -0.000004682680
211       0.000189478137
212       0.000074787932
213       0.000015301296
214      -0.000038715951
215       0.000048189889
216       0.000003513142
217       0.000034903920
218      -0.000004421295
219      -0.000213743199
220       0.001722577466
221       0.000776907676
222      -0.000101825285
223      -0.000045186732
224      -0.000318846467
225      -0.000371559097
226      -0.000032424544
227      -0.000599357040
228       0.000224062532
229       0.000187406301
230       0.000037112324
231       0.000043492732
232       0.000034928892
233      -0.000234936753
234       0.001678516305
235       0.000792989891
236      -0.000105519849
237      -0.000252647227
238       0.000175777516
239      -0.000379681186
240      -0.000501358545
241       0.000373081342
242      -0.000020955018
243      -0.000106017762
244      -0.000215762372
245      -0.000101913874
246       0.000172910210
247       0.000022679979
248      -0.000277680682
249      -0.000133157870
250      -0.000542024776
251       0.000088687852
252      -0.000241666542
253      -0.000111827717
254       0.000117093078
255      -0.000253828984
256      -0.000059497618
257       0.000105444667
258      -0.000332379428
259       0.000309847209
260       0.000044883698
261       0.000021539779
262      -0.000041396277
263       0.000031435234
264       0.000025953745
265      -0.000150370865
266      -0.000065043347
267       0.000118903357
268      -0.000074031619
269      -0.000054094903
270      -0.000057492570
271       0.000023516098
272      -0.000041947928
273      -0.000088451769
274      -0.000083645676
275      -0.000120750338
276       0.000056361389
277       0.000055429528
278       0.000569315470
279      -0.000027848101
280      -0.000014465079
281       0.000021206397
282       0.000055935936
283       0.000001932111
284       0.000058050588
285       0.000047840662
286      -0.000026379518
287       0.000007851845
288      -0.000030548693
289       0.000040950539
290       0.000039696426
 Sym=     1a
 Ene= -1.12255272604332E+01
 Spin= Alpha
 Occup= 2.000000
  1      -0.050348635256
  2      -0.000206705742
  3      -0.002315893082
  4       0.001879721827
  5      -0.000240276656
  6       0.000003035119
  7       0.000003338889
  8      -0.000226326948
  9       0.000150796572
 10       0.000067909809
 11       0.000640795125
 12       0.000047089332
 13       0.000024447801
 14      -0.000019072848
 15      -0.000002182097
 16       0.000013907383
 17       0.000006789973
 18      -0.000003666735
 19      -0.000186456361
 20      -0.000035612565
 21       0.000033339303
 22       0.000263562051
 23      -0.000077686360
 24       0.000082697377
 25      -0.000173734782
 26       0.000037957500
 27       0.000045277923
 28      -0.000002877276
 29      -0.000230977736
 30       0.000014527488
 31      -0.975040092292
 32      -0.001757343973
 33      -0.040960922897
 34      -0.008999472572
 35       0.000040493298
 36       0.000013193963
 37       0.000011978050
 38      -0.000713493204
 39      -0.000763209871
 40      -0.000339836419
 41       0.000270343428
 42       0.000508941294
 43       0.000203320732
 44      -0.000144057662
 45      -0.000035524182
 46       0.000106543178
 47       0.000051979522
 48      -0.000075031448
 49      -0.000374411210
 50      -0.000081034765
 51       0.000235056666
 52       0.000203994073
 53      -0.000167827457
 54      -0.000454184441
 55      -0.000381821598
 56      -0.000209007530
 57      -0.000333411920
 58       0.000080628042
 59      -0.000356754420
 60      -0.000003751309
 61       0.000014926766
 62      -0.000262541379
 63      -0.000087772025
 64       0.000032519627
 65      -0.000003450744
 66      -0.000001486044
 67       0.000113576093
 68       0.000186126015
 69       0.000079108710
 70      -0.000011041106
 71      -0.000012839788
 72      -0.000021525055
 73       0.000059904048
 74      -0.000028170021
 75      -0.000020635360
 76       0.000109563980
 77       0.000044556315
 78       0.000015574610
 79       0.000001690164
 80      -0.000007876252
 81       0.000242329004
 82      -0.000034136188
 83       0.000017226991
 84      -0.000025388160
 85      -0.000027552596
 86       0.000007042800
 87       0.000060163457
 88       0.000040628755
 89      -0.000021034530
 90       0.000109758927
 91       0.000055244648
 92       0.000015493711
 93      -0.000004352819
 94       0.000006183677
 95       0.000243201466
 96      -0.000009678071
 97      -0.000038751220
 98      -0.000039788521
 99       0.000047395584
100      -0.000007435463
101       0.000052836675
102       0.000008005195
103      -0.000254617007
104       0.001811150575
105       0.000824610203
106      -0.000108078051
107      -0.000024910546
108      -0.000321997045
109      -0.000313764342
110      -0.000208904698
111      -0.000723151732
112       0.000288375054
113       0.000204628023
114       0.000086380842
115       0.000025321823
116       0.000038576059
117      -0.000254388576
118       0.001788699066
119       0.000816510058
120      -0.000104444992
121      -0.000252517059
122       0.000202023691
123      -0.000301945681
124      -0.000667268588
125       0.000343168146
126      -0.000026734369
127      -0.000108771040
128      -0.000258892297
129      -0.000161384859
130       0.000170863873
131      -0.066909512079
132      -0.000345285647
133      -0.003023411978
134       0.001914600843
135       0.000088094501
136      -0.000224663264
137      -0.000093598699
138       0.000159605603
139       0.000070802542
140       0.000028940153
141      -0.000183498617
142       0.000715353247
143       0.000301668903
144      -0.000020301175
145       0.000007608186
146       0.000015151036
147       0.000005174113
148       0.000014930224
149      -0.000174671652
150      -0.000131844776
151       0.000281279965
152      -0.000204391408
153      -0.000264848916
154      -0.000091137548
155       0.000106494311