[Molden Format]
[N_Atoms]
                    15
[Atoms] (AU)
C1          1      6         -13.65657827      5.01627800      0.21731850
C2          2      6         -10.77332864      4.99006750      0.18545772
H3          3      1         -14.33485767      6.83576300      1.01262864
H4          4      1         -14.38744875      3.44869349      1.40709007
H5          5      1         -14.40980421      4.81235765     -1.73157495
H6          6      1         -10.07155994      5.23869876      2.15041384
H7          7      1         -10.09355635      6.59939606     -0.98214736
C8          8      6          -9.76255193      2.50313122     -0.90234422
H9          9      1         -10.44667058      0.89605144      0.26675374
C10        10      6          -6.87089301      2.48030333     -0.93267433
H11        11      1         -10.47093466      2.25977229     -2.86605313
H12        12      1          -6.13920995      2.70990506      1.02168043
H13        13      1          -6.11770487      4.08161946     -2.07395552
O14        14      8          -5.98037847      0.17659491     -1.88885685
H15        15      1          -6.15317503      0.26569549     -3.75503699
[5D]
[7F]
[Charge] (Mulliken)
 -0.274729357304901     
 -0.167852755009962     
  9.422589813493643E-002
  8.517129918403610E-002
  8.260093954079817E-002
  8.559935307816802E-002
  8.082040226924847E-002
 -0.157364742544297     
  9.223286123932140E-002
  6.629580951050063E-002
  6.721518439402163E-002
  8.380296803656262E-002
  5.192088998444810E-002
 -0.416466423960758     
  0.226527673439217     
[GTO] (AU)
   1
   s  10
  0.823600000E+04  0.530999862E-03
  0.123500000E+04  0.410799893E-02
  0.280800000E+03  0.210869945E-01
  0.792700000E+02  0.818529787E-01
  0.255900000E+02  0.234816939E+00
  0.899700000E+01  0.434400887E+00
  0.331900000E+01  0.346128910E+00
  0.905900000E+00  0.393779897E-01
  0.364300000E+00 -0.898299766E-02
  0.128500000E+00  0.238499938E-02
   s  10
  0.823600000E+04 -0.112999941E-03
  0.123500000E+04 -0.877999545E-03
  0.280800000E+03 -0.453999765E-02
  0.792700000E+02 -0.181329906E-01
  0.255900000E+02 -0.557599711E-01
  0.899700000E+01 -0.126894934E+00
  0.331900000E+01 -0.170351912E+00
  0.905900000E+00  0.140381927E+00
  0.364300000E+00  0.598683690E+00
  0.128500000E+00  0.395388795E+00
   s   1
  0.905900000E+00  0.100000000E+01
   s   1
  0.128500000E+00  0.100000000E+01
   p   5
  0.187100000E+02  0.140309984E-01
  0.413300000E+01  0.868659900E-01
  0.120000000E+01  0.290215966E+00
  0.382700000E+00  0.501007942E+00
  0.120900000E+00  0.343405960E+00
   p   1
  0.382700000E+00  0.100000000E+01
   p   1
  0.120900000E+00  0.100000000E+01
   d   1
  0.109700000E+01  0.100000000E+01
   d   1
  0.318000000E+00  0.100000000E+01
   f   1
  0.761000000E+00  0.100000000E+01
 
   2
   s  10
  0.823600000E+04  0.530999862E-03
  0.123500000E+04  0.410799893E-02
  0.280800000E+03  0.210869945E-01
  0.792700000E+02  0.818529787E-01
  0.255900000E+02  0.234816939E+00
  0.899700000E+01  0.434400887E+00
  0.331900000E+01  0.346128910E+00
  0.905900000E+00  0.393779897E-01
  0.364300000E+00 -0.898299766E-02
  0.128500000E+00  0.238499938E-02
   s  10
  0.823600000E+04 -0.112999941E-03
  0.123500000E+04 -0.877999545E-03
  0.280800000E+03 -0.453999765E-02
  0.792700000E+02 -0.181329906E-01
  0.255900000E+02 -0.557599711E-01
  0.899700000E+01 -0.126894934E+00
  0.331900000E+01 -0.170351912E+00
  0.905900000E+00  0.140381927E+00
  0.364300000E+00  0.598683690E+00
  0.128500000E+00  0.395388795E+00
   s   1
  0.905900000E+00  0.100000000E+01
   s   1
  0.128500000E+00  0.100000000E+01
   p   5
  0.187100000E+02  0.140309984E-01
  0.413300000E+01  0.868659900E-01
  0.120000000E+01  0.290215966E+00
  0.382700000E+00  0.501007942E+00
  0.120900000E+00  0.343405960E+00
   p   1
  0.382700000E+00  0.100000000E+01
   p   1
  0.120900000E+00  0.100000000E+01
   d   1
  0.109700000E+01  0.100000000E+01
   d   1
  0.318000000E+00  0.100000000E+01
   f   1
  0.761000000E+00  0.100000000E+01
 
   3
   s   5
  0.338700000E+02  0.606799922E-02
  0.509500000E+01  0.453079942E-01
  0.115900000E+01  0.202821974E+00
  0.325800000E+00  0.503902935E+00
  0.102700000E+00  0.383420951E+00
   s   1
  0.325800000E+00  0.100000000E+01
   s   1
  0.102700000E+00  0.100000000E+01
   p   1
  0.140700000E+01  0.100000000E+01
   p   1
  0.388000000E+00  0.100000000E+01
   d   1
  0.105700000E+01  0.100000000E+01
 
   4
   s   5
  0.338700000E+02  0.606799922E-02
  0.509500000E+01  0.453079942E-01
  0.115900000E+01  0.202821974E+00
  0.325800000E+00  0.503902935E+00
  0.102700000E+00  0.383420951E+00
   s   1
  0.325800000E+00  0.100000000E+01
   s   1
  0.102700000E+00  0.100000000E+01
   p   1
  0.140700000E+01  0.100000000E+01
   p   1
  0.388000000E+00  0.100000000E+01
   d   1
  0.105700000E+01  0.100000000E+01
 
   5
   s   5
  0.338700000E+02  0.606799922E-02
  0.509500000E+01  0.453079942E-01
  0.115900000E+01  0.202821974E+00
  0.325800000E+00  0.503902935E+00
  0.102700000E+00  0.383420951E+00
   s   1
  0.325800000E+00  0.100000000E+01
   s   1
  0.102700000E+00  0.100000000E+01
   p   1
  0.140700000E+01  0.100000000E+01
   p   1
  0.388000000E+00  0.100000000E+01
   d   1
  0.105700000E+01  0.100000000E+01
 
   6
   s   5
  0.338700000E+02  0.606799922E-02
  0.509500000E+01  0.453079942E-01
  0.115900000E+01  0.202821974E+00
  0.325800000E+00  0.503902935E+00
  0.102700000E+00  0.383420951E+00
   s   1
  0.325800000E+00  0.100000000E+01
   s   1
  0.102700000E+00  0.100000000E+01
   p   1
  0.140700000E+01  0.100000000E+01
   p   1
  0.388000000E+00  0.100000000E+01
   d   1
  0.105700000E+01  0.100000000E+01
 
   7
   s   5
  0.338700000E+02  0.606799922E-02
  0.509500000E+01  0.453079942E-01
  0.115900000E+01  0.202821974E+00
  0.325800000E+00  0.503902935E+00
  0.102700000E+00  0.383420951E+00
   s   1
  0.325800000E+00  0.100000000E+01
   s   1
  0.102700000E+00  0.100000000E+01
   p   1
  0.140700000E+01  0.100000000E+01
   p   1
  0.388000000E+00  0.100000000E+01
   d   1
  0.105700000E+01  0.100000000E+01
 
   8
   s  10
  0.823600000E+04  0.530999862E-03
  0.123500000E+04  0.410799893E-02
  0.280800000E+03  0.210869945E-01
  0.792700000E+02  0.818529787E-01
  0.255900000E+02  0.234816939E+00
  0.899700000E+01  0.434400887E+00
  0.331900000E+01  0.346128910E+00
  0.905900000E+00  0.393779897E-01
  0.364300000E+00 -0.898299766E-02
  0.128500000E+00  0.238499938E-02
   s  10
  0.823600000E+04 -0.112999941E-03
  0.123500000E+04 -0.877999545E-03
  0.280800000E+03 -0.453999765E-02
  0.792700000E+02 -0.181329906E-01
  0.255900000E+02 -0.557599711E-01
  0.899700000E+01 -0.126894934E+00
  0.331900000E+01 -0.170351912E+00
  0.905900000E+00  0.140381927E+00
  0.364300000E+00  0.598683690E+00
  0.128500000E+00  0.395388795E+00
   s   1
  0.905900000E+00  0.100000000E+01
   s   1
  0.128500000E+00  0.100000000E+01
   p   5
  0.187100000E+02  0.140309984E-01
  0.413300000E+01  0.868659900E-01
  0.120000000E+01  0.290215966E+00
  0.382700000E+00  0.501007942E+00
  0.120900000E+00  0.343405960E+00
   p   1
  0.382700000E+00  0.100000000E+01
   p   1
  0.120900000E+00  0.100000000E+01
   d   1
  0.109700000E+01  0.100000000E+01
   d   1
  0.318000000E+00  0.100000000E+01
   f   1
  0.761000000E+00  0.100000000E+01
 
   9
   s   5
  0.338700000E+02  0.606799922E-02
  0.509500000E+01  0.453079942E-01
  0.115900000E+01  0.202821974E+00
  0.325800000E+00  0.503902935E+00
  0.102700000E+00  0.383420951E+00
   s   1
  0.325800000E+00  0.100000000E+01
   s   1
  0.102700000E+00  0.100000000E+01
   p   1
  0.140700000E+01  0.100000000E+01
   p   1
  0.388000000E+00  0.100000000E+01
   d   1
  0.105700000E+01  0.100000000E+01
 
  10
   s  10
  0.823600000E+04  0.530999862E-03
  0.123500000E+04  0.410799893E-02
  0.280800000E+03  0.210869945E-01
  0.792700000E+02  0.818529787E-01
  0.255900000E+02  0.234816939E+00
  0.899700000E+01  0.434400887E+00
  0.331900000E+01  0.346128910E+00
  0.905900000E+00  0.393779897E-01
  0.364300000E+00 -0.898299766E-02
  0.128500000E+00  0.238499938E-02
   s  10
  0.823600000E+04 -0.112999941E-03
  0.123500000E+04 -0.877999545E-03
  0.280800000E+03 -0.453999765E-02
  0.792700000E+02 -0.181329906E-01
  0.255900000E+02 -0.557599711E-01
  0.899700000E+01 -0.126894934E+00
  0.331900000E+01 -0.170351912E+00
  0.905900000E+00  0.140381927E+00
  0.364300000E+00  0.598683690E+00
  0.128500000E+00  0.395388795E+00
   s   1
  0.905900000E+00  0.100000000E+01
   s   1
  0.128500000E+00  0.100000000E+01
   p   5
  0.187100000E+02  0.140309984E-01
  0.413300000E+01  0.868659900E-01
  0.120000000E+01  0.290215966E+00
  0.382700000E+00  0.501007942E+00
  0.120900000E+00  0.343405960E+00
   p   1
  0.382700000E+00  0.100000000E+01
   p   1
  0.120900000E+00  0.100000000E+01
   d   1
  0.109700000E+01  0.100000000E+01
   d   1
  0.318000000E+00  0.100000000E+01
   f   1
  0.761000000E+00  0.100000000E+01
 
  11
   s   5
  0.338700000E+02  0.606799922E-02
  0.509500000E+01  0.453079942E-01
  0.115900000E+01  0.202821974E+00
  0.325800000E+00  0.503902935E+00
  0.102700000E+00  0.383420951E+00
   s   1
  0.325800000E+00  0.100000000E+01
   s   1
  0.102700000E+00  0.100000000E+01
   p   1
  0.140700000E+01  0.100000000E+01
   p   1
  0.388000000E+00  0.100000000E+01
   d   1
  0.105700000E+01  0.100000000E+01
 
  12
   s   5
  0.338700000E+02  0.606799922E-02
  0.509500000E+01  0.453079942E-01
  0.115900000E+01  0.202821974E+00
  0.325800000E+00  0.503902935E+00
  0.102700000E+00  0.383420951E+00
   s   1
  0.325800000E+00  0.100000000E+01
   s   1
  0.102700000E+00  0.100000000E+01
   p   1
  0.140700000E+01  0.100000000E+01
   p   1
  0.388000000E+00  0.100000000E+01
   d   1
  0.105700000E+01  0.100000000E+01
 
  13
   s   5
  0.338700000E+02  0.606799922E-02
  0.509500000E+01  0.453079942E-01
  0.115900000E+01  0.202821974E+00
  0.325800000E+00  0.503902935E+00
  0.102700000E+00  0.383420951E+00
   s   1
  0.325800000E+00  0.100000000E+01
   s   1
  0.102700000E+00  0.100000000E+01
   p   1
  0.140700000E+01  0.100000000E+01
   p   1
  0.388000000E+00  0.100000000E+01
   d   1
  0.105700000E+01  0.100000000E+01
 
  14
   s  10
  0.153300000E+05  0.507999668E-03
  0.229900000E+04  0.392899743E-02
  0.522400000E+03  0.202429868E-01
  0.147300000E+03  0.791809483E-01
  0.475500000E+02  0.230686849E+00
  0.167600000E+02  0.433117717E+00
  0.620700000E+01  0.350259771E+00
  0.175200000E+01  0.427279721E-01
  0.688200000E+00 -0.815399467E-02
  0.238400000E+00  0.238099844E-02
   s  10
  0.153300000E+05 -0.115000060E-03
  0.229900000E+04 -0.895000470E-03
  0.522400000E+03 -0.463600243E-02
  0.147300000E+03 -0.187240098E-01
  0.475500000E+02 -0.584630307E-01
  0.167600000E+02 -0.136463072E+00
  0.620700000E+01 -0.175740092E+00
  0.175200000E+01  0.160934084E+00
  0.688200000E+00  0.603418317E+00
  0.238400000E+00  0.378765199E+00
   s   1
  0.175200000E+01  0.100000000E+01
   s   1
  0.238400000E+00  0.100000000E+01
   p   5
  0.344600000E+02  0.159279907E-01
  0.774900000E+01  0.997399420E-01
  0.228000000E+01  0.310491820E+00
  0.715600000E+00  0.491025715E+00
  0.214000000E+00  0.336336805E+00
   p   1
  0.715600000E+00  0.100000000E+01
   p   1
  0.214000000E+00  0.100000000E+01
   d   1
  0.231400000E+01  0.100000000E+01
   d   1
  0.645000000E+00  0.100000000E+01
   f   1
  0.142800000E+01  0.100000000E+01
 
  15
   s   5
  0.338700000E+02  0.606799922E-02
  0.509500000E+01  0.453079942E-01
  0.115900000E+01  0.202821974E+00
  0.325800000E+00  0.503902935E+00
  0.102700000E+00  0.383420951E+00
   s   1
  0.325800000E+00  0.100000000E+01
   s   1
  0.102700000E+00  0.100000000E+01
   p   1
  0.140700000E+01  0.100000000E+01
   p   1
  0.388000000E+00  0.100000000E+01
   d   1
  0.105700000E+01  0.100000000E+01
 
[MO]
Sym=     1a  
Ene=   -20.5520
Spin= Alpha
Occup=    2.00000
   1         0.00001575
   2         0.00004820
   3        -0.00001446
   4        -0.00017431
   5        -0.00002899
   6        -0.00001896
   7        -0.00000875
   8         0.00011013
   9         0.00005353
  10         0.00002178
  11        -0.00008396
  12        -0.00010879
  13        -0.00005004
  14        -0.00000603
  15        -0.00000024
  16         0.00000263
  17         0.00000543
  18         0.00000010
  19        -0.00001870
  20         0.00003968
  21         0.00000640
  22         0.00002606
  23         0.00007632
  24        -0.00000148
  25        -0.00000191
  26        -0.00000211
  27         0.00000650
  28         0.00000262
  29        -0.00000142
  30         0.00001081
  31         0.00010123
  32         0.00033669
  33        -0.00001948
  34        -0.00127027
  35         0.00001941
  36         0.00000533
  37         0.00000069
  38         0.00002231
  39        -0.00019226
  40        -0.00007803
  41        -0.00073922
  42         0.00038586
  43         0.00017986
  44        -0.00001153
  45        -0.00001772
  46         0.00001081
  47         0.00000341
  48        -0.00003714
  49         0.00001787
  50         0.00007283
  51         0.00002717
  52        -0.00008714
  53         0.00013007
  54        -0.00000772
  55        -0.00001294
  56        -0.00000410
  57        -0.00000537
  58        -0.00000113
  59         0.00001962
  60        -0.00000021
  61         0.00000311
  62         0.00004522
  63        -0.00001863
  64         0.00000636
  65        -0.00000045
  66        -0.00000020
  67        -0.00004747
  68        -0.00001658
  69        -0.00000661
  70         0.00000310
  71         0.00000163
  72         0.00000006
  73        -0.00000617
  74         0.00000428
  75         0.00000275
  76         0.00000364
  77        -0.00004701
  78        -0.00000383
  79         0.00000025
  80        -0.00000595
  81         0.00002327
  82         0.00001745
  83         0.00001692
  84        -0.00000357
  85        -0.00000527
  86        -0.00000192
  87        -0.00000177
  88        -0.00000030
  89         0.00000196
  90        -0.00000510
  91        -0.00005444
  92        -0.00000365
  93        -0.00000423
  94         0.00000459
  95         0.00002237
  96         0.00002417
  97        -0.00000455
  98         0.00000152
  99         0.00000301
 100         0.00000386
 101         0.00000128
 102        -0.00000363
 103        -0.00010107
 104         0.00027137
 105         0.00005970
 106        -0.00001296
 107        -0.00000645
 108        -0.00000518
 109         0.00003511
 110        -0.00000782
 111        -0.00005503
 112         0.00000538
 113         0.00000023
 114        -0.00000033
 115         0.00000977
 116         0.00000086
 117        -0.00009981
 118         0.00028644
 119         0.00006788
 120        -0.00001315
 121        -0.00000865
 122        -0.00000075
 123         0.00004161
 124        -0.00005498
 125         0.00003344
 126        -0.00000355
 127         0.00000108
 128        -0.00000998
 129         0.00000229
 130        -0.00000058
 131         0.00000944
 132         0.00002722
 133        -0.00000163
 134         0.00154379
 135        -0.00001659
 136        -0.00000211
 137         0.00000000
 138         0.00010292
 139         0.00000917
 140         0.00000724
 141         0.00041531
 142         0.00040003
 143         0.00018319
 144        -0.00002209
 145        -0.00001840
 146         0.00003139
 147        -0.00001540
 148        -0.00004513
 149         0.00014806
 150         0.00009407
 151        -0.00019022
 152         0.00008559
 153         0.00025181
 154        -0.00001661
 155         0.00000563
 156        -0.00000814
 157         0.00000244
 158         0.00000357
 159         0.00000078
 160         0.00002186
 161        -0.00015365
 162        -0.00002620
 163         0.00018786
 164        -0.00001718
 165        -0.00000106
 166         0.00000614
 167         0.00008806
 168        -0.00006497
 169        -0.00005809
 170        -0.00000288
 171        -0.00002763
 172        -0.00000650
 173         0.00001295
 174        -0.00000510
 175         0.00034122
 176         0.00118086
 177        -0.00047029
 178        -0.00278474
 179        -0.00002359
 180         0.00025295
 181         0.00014404
 182         0.00025303
 183        -0.00152019
 184        -0.00084915
 185         0.00013274
 186         0.00050439
 187         0.00015319
 188        -0.00009375
 189        -0.00007448
 190         0.00015482
 191        -0.00014891
 192        -0.00015644
 193        -0.00046620
 194        -0.00019085
 195         0.00059537
 196        -0.00048457
 197        -0.00035467
 198         0.00010070
 199        -0.00004702
 200        -0.00000400
 201         0.00013284
 202         0.00014926
 203        -0.00015978
 204         0.00007743
 205        -0.00013513
 206        -0.00001982
 207         0.00019994
 208        -0.00001640
 209        -0.00000091
 210        -0.00000387
 211         0.00007965
 212        -0.00007796
 213         0.00000422
 214         0.00000108
 215         0.00001088
 216        -0.00000441
 217         0.00001387
 218        -0.00002527
 219        -0.00005663
 220         0.00088725
 221         0.00014514
 222        -0.00000246
 223         0.00001607
 224        -0.00001059
 225        -0.00014426
 226        -0.00015401
 227        -0.00029028
 228         0.00002637
 229         0.00002904
 230        -0.00002392
 231         0.00004189
 232         0.00003050
 233         0.00001983
 234         0.00053659
 235         0.00007621
 236         0.00000300
 237        -0.00001074
 238         0.00000333
 239        -0.00007654
 240        -0.00020009
 241        -0.00001950
 242        -0.00000311
 243         0.00003174
 244        -0.00002256
 245         0.00003362
 246         0.00003405
 247         0.99887990
 248        -0.00236501
 249         0.00132311
 250         0.00086871
 251        -0.00174780
 252         0.00377966
 253        -0.00238789
 254         0.00154118
 255        -0.00331674
 256         0.00171859
 257         0.00039384
 258        -0.00092415
 259         0.00110551
 260         0.00001148
 261         0.00000739
 262        -0.00002037
 263         0.00000834
 264         0.00000281
 265        -0.00027956
 266         0.00001332
 267        -0.00019678
 268         0.00030831
 269         0.00029087
 270         0.00009256
 271         0.00001251
 272        -0.00000666
 273         0.00002622
 274         0.00001918
 275        -0.00005223
 276         0.00002218
 277         0.00180580
 278        -0.00001872
 279        -0.00070352
 280         0.00001837
 281         0.00000750
 282         0.00029526
 283         0.00004047
 284         0.00000942
 285         0.00051842
 286        -0.00003331
 287        -0.00002722
 288         0.00006044
 289        -0.00001537
 290        -0.00001109
Sym=     2a  
Ene=   -11.2730
Spin= Alpha
Occup=    2.00000
   1        -0.00000406
   2        -0.00007108
   3         0.00003348
   4        -0.00104228
   5         0.00005110
   6         0.00001153
   7         0.00000435
   8        -0.00021829
   9         0.00001032
  10         0.00000731
  11        -0.00053258
  12         0.00014244
  13         0.00006027
  14         0.00000379
  15         0.00000142
  16        -0.00000001
  17        -0.00000707
  18         0.00000325
  19         0.00005377
  20        -0.00002908
  21         0.00002167
  22        -0.00012654
  23        -0.00007340
  24         0.00000390
  25         0.00002226
  26         0.00000376
  27        -0.00000196
  28        -0.00000643
  29        -0.00001641
  30        -0.00001089
  31        -0.00008247
  32        -0.00005377
  33        -0.00000664
  34         0.00024417
  35         0.00007132
  36         0.00001516
  37         0.00000474
  38        -0.00027083
  39         0.00009778
  40         0.00004592
  41        -0.00090869
  42        -0.00002361
  43         0.00002963
  44         0.00001913
  45         0.00001132
  46        -0.00000827
  47        -0.00001241
  48         0.00002657
  49        -0.00012134
  50        -0.00000154
  51        -0.00001531
  52         0.00017045
  53        -0.00001052
  54        -0.00001708
  55         0.00001832
  56        -0.00001021
  57         0.00000880
  58        -0.00000929
  59        -0.00001432
  60         0.00003800
  61        -0.00003543
  62        -0.00003310
  63        -0.00010044
  64        -0.00000172
  65        -0.00000248
  66        -0.00000133
  67         0.00000867
  68         0.00003768
  69         0.00001658
  70        -0.00000135
  71        -0.00000036
  72        -0.00000136
  73         0.00000470
  74        -0.00000026
  75        -0.00001297
  76         0.00008292
  77        -0.00005799
  78         0.00000807
  79        -0.00000010
  80        -0.00000305
  81        -0.00004511
  82         0.00002018
  83        -0.00000336
  84         0.00000349
  85         0.00000925
  86        -0.00000335
  87        -0.00000456
  88         0.00000306
  89        -0.00001312
  90         0.00008152
  91        -0.00006007
  92         0.00000764
  93        -0.00000280
  94         0.00000246
  95        -0.00004325
  96         0.00001274
  97         0.00001706
  98         0.00000609
  99        -0.00000402
 100        -0.00000112
 101        -0.00000320
 102         0.00000936
 103         0.00011660
 104        -0.00001226
 105         0.00005441
 106         0.00000326
 107        -0.00001777
 108        -0.00000666
 109        -0.00004098
 110         0.00007674
 111         0.00002295
 112        -0.00001049
 113         0.00001748
 114        -0.00002138
 115        -0.00000594
 116         0.00001316
 117         0.00010408
 118        -0.00001701
 119         0.00008872
 120         0.00000367
 121        -0.00001627
 122        -0.00000832
 123        -0.00003351
 124         0.00006456
 125         0.00003091
 126         0.00001876
 127        -0.00000130
 128         0.00001099
 129         0.00000889
 130         0.00002191
 131         0.00585660
 132         0.00012832
 133         0.00022681
 134        -0.00274401
 135         0.00080524
 136         0.00002124
 137         0.00000426
 138        -0.00074203
 139        -0.00006757
 140        -0.00006399
 141        -0.00190937
 142         0.00036695
 143         0.00011991
 144         0.00002889
 145         0.00000099
 146        -0.00001373
 147        -0.00000637
 148         0.00000537
 149         0.00027414
 150        -0.00004817
 151         0.00004801
 152        -0.00058860
 153        -0.00022149
 154        -0.00006273
 155         0.00019388
 156        -0.00002409
 157        -0.00003976
 158        -0.00000914
 159        -0.00024338
 160        -0.00001350
 161        -0.00000004
 162        -0.00003814
 163        -0.00006111
 164        -0.00002949
 165         0.00001985
 166         0.00000950
 167        -0.00018030
 168        -0.00003061
 169        -0.00006132
 170         0.00002438
 171         0.00003409
 172        -0.00002004
 173        -0.00004683
 174        -0.00003275
 175         0.99989090
 176         0.00312896
 177         0.00090962
 178         0.00463913
 179         0.00112072
 180        -0.00224238
 181        -0.00114456
 182        -0.00068600
 183         0.00267218
 184         0.00132810
 185        -0.00170995
 186         0.00141630
 187         0.00075467
 188         0.00011422
 189         0.00002853
 190        -0.00006473
 191        -0.00005971
 192         0.00007560
 193         0.00032024
 194         0.00016259
 195        -0.00049022
 196         0.00032942
 197         0.00029120
 198         0.00044998
 199         0.00040555
 200         0.00019441
 201         0.00032716
 202        -0.00006638
 203        -0.00042425
 204         0.00003004
 205         0.00003832
 206        -0.00015071
 207        -0.00010554
 208        -0.00002556
 209         0.00001652
 210         0.00000468
 211        -0.00018948
 212        -0.00007479
 213        -0.00001531
 214         0.00003872
 215        -0.00004819
 216        -0.00000351
 217        -0.00003490
 218         0.00000442
 219         0.00089802
 220        -0.00217507
 221        -0.00112123
 222         0.00010183
 223         0.00004519
 224         0.00031885
 225         0.00037155
 226         0.00003242
 227         0.00059935
 228        -0.00022407
 229        -0.00018741
 230        -0.00003711
 231        -0.00004349
 232        -0.00003493
 233         0.00098707
 234        -0.00217595
 235        -0.00117146
 236         0.00010552
 237         0.00025265
 238        -0.00017578
 239         0.00037969
 240         0.00050137
 241        -0.00037309
 242         0.00002096
 243         0.00010602
 244         0.00021576
 245         0.00010191
 246        -0.00017291
 247        -0.00002323
 248         0.00047622
 249         0.00005750
 250         0.00036170
 251        -0.00022919
 252         0.00062451
 253         0.00028899
 254        -0.00000455
 255        -0.00005284
 256        -0.00008240
 257        -0.00002836
 258         0.00012232
 259        -0.00040704
 260        -0.00004488
 261        -0.00002154
 262         0.00004140
 263        -0.00003143
 264        -0.00002595
 265         0.00015037
 266         0.00006504
 267        -0.00011890
 268         0.00007403
 269         0.00005409
 270         0.00005749
 271        -0.00002352
 272         0.00004195
 273         0.00008845
 274         0.00008365
 275        -0.00012075
 276         0.00005636
 277        -0.00023289
 278        -0.00045194
 279         0.00011715
 280         0.00001447
 281        -0.00002121
 282        -0.00005594
 283        -0.00000193
 284        -0.00005805
 285        -0.00004783
 286         0.00002638
 287        -0.00000785
 288         0.00003055
 289        -0.00004095
 290        -0.00003970
Sym=     3a  
Ene=   -11.2260
Spin= Alpha
Occup=    2.00000
   1         0.05130847
   2         0.00035876
   3         0.00024002
   4        -0.00214501
   5         0.00067519
   6        -0.00000853
   7        -0.00000938
   8        -0.00011199
   9        -0.00014649
  10        -0.00006320
  11        -0.00087279
  12        -0.00004410
  13        -0.00002120
  14         0.00001907
  15         0.00000218
  16        -0.00001391
  17        -0.00000678
  18         0.00000367
  19         0.00018645
  20         0.00003561
  21        -0.00003333
  22        -0.00026358
  23         0.00007768
  24        -0.00008264
  25         0.00017378
  26        -0.00003793
  27        -0.00004523
  28         0.00000287
  29        -0.00023103
  30         0.00001454
  31         0.99603215
  32         0.00305410
  33         0.00131066
  34         0.00541661
  35        -0.00011341
  36        -0.00003703
  37        -0.00003367
  38         0.00077017
  39         0.00078172
  40         0.00035670
  41        -0.00023157
  42        -0.00049619
  43        -0.00019173
  44         0.00014406
  45         0.00003552
  46        -0.00010655
  47        -0.00005197
  48         0.00007503
  49         0.00037435
  50         0.00008104
  51        -0.00023506
  52        -0.00020387
  53         0.00016784
  54         0.00045417
  55         0.00038185
  56         0.00020900
  57         0.00033340
  58        -0.00008064
  59        -0.00035678
  60        -0.00000375
  61        -0.00006282
  62         0.00029429
  63         0.00011192
  64        -0.00003251
  65         0.00000342
  66         0.00000147
  67        -0.00011356
  68        -0.00018616
  69        -0.00007912
  70         0.00001103
  71         0.00001283
  72         0.00002155
  73        -0.00005992
  74         0.00002815
  75         0.00008658
  76        -0.00015303
  77        -0.00007765
  78        -0.00001556
  79        -0.00000166
  80         0.00000785
  81        -0.00024230
  82         0.00003418
  83        -0.00001726
  84         0.00002539
  85         0.00002754
  86        -0.00000707
  87        -0.00006018
  88        -0.00004061
  89         0.00008826
  90        -0.00015408
  91        -0.00008898
  92        -0.00001548
  93         0.00000436
  94        -0.00000615
  95        -0.00024317
  96         0.00000968
  97         0.00003881
  98         0.00003982
  99        -0.00004737
 100         0.00000744
 101        -0.00005283
 102        -0.00000800
 103         0.00106976
 104        -0.00235017
 105        -0.00123478
 106         0.00010807
 107         0.00002491
 108         0.00032200
 109         0.00031373
 110         0.00020891
 111         0.00072314
 112        -0.00028838
 113        -0.00020462
 114        -0.00008639
 115        -0.00002532
 116        -0.00003858
 117         0.00106881
 118        -0.00232722
 119        -0.00122631
 120         0.00010444
 121         0.00025252
 122        -0.00020202
 123         0.00030191
 124         0.00066726
 125        -0.00034316
 126         0.00002673
 127         0.00010877
 128         0.00025890
 129         0.00016139
 130        -0.00017086
 131         0.06839386
 132         0.00060021
 133         0.00024776
 134        -0.00231476
 135        -0.00024751
 136         0.00063131
 137         0.00026301
 138        -0.00003568
 139        -0.00038710
 140        -0.00016071
 141         0.00026836
 142        -0.00093212
 143        -0.00039199
 144         0.00002030
 145        -0.00000761
 146        -0.00001515
 147        -0.00000517
 148        -0.00001493
 149         0.00017471
 150         0.00013185
 151        -0.00028129
 152         0.00020435
 153         0.00026486
 154         0.00009112
 155        -0.00010651
 156         0.00002878
 157         0.00010236
 158         0.00018380
 159        -0.00014516
 160         0.00007088
 161         0.00012479
 162        -0.00033029
 163        -0.00020831
 164         0.00001098
 165        -0.00002336
 166         0.00000613
 167         0.00004718
 168        -0.00025776
 169        -0.00008245
 170         0.00004347
 171        -0.00001836