[Molden Format]
[N_Atoms]
                    15
[Atoms] (AU)
C1          1      6          -7.84342166    -11.83144299     -3.19530011
C2          2      6          -7.00313605     -9.40116070     -1.89051981
H3          3      1          -9.06866339    -12.93793432     -1.90008182
H4          4      1          -6.17570056    -13.00023859     -3.70495925
H5          5      1          -8.93214958    -11.38718727     -4.93439616
H6          6      1          -5.95645454     -9.89980274     -0.13804449
H7          7      1          -8.70717768     -8.28962380     -1.36513815
C8          8      6          -5.30455572     -7.81838279     -3.62241601
H9          9      1          -3.60276286     -8.93449284     -4.14751421
C10        10      6          -4.46370318     -5.38209118     -2.31070041
H11        11      1          -6.35669853     -7.32626032     -5.37398426
H12        12      1          -3.39880472     -5.84883464     -0.56264706
H13        13      1          -6.12613305     -4.22304656     -1.73886929
O14        14      8          -2.87627655     -3.98227655     -3.90287026
H15        15      1          -3.98632057     -3.11470329     -5.14202037
[5D]
[7F]
[Charge] (Mulliken)
 -0.274726145952748     
 -0.167852035453532     
  9.422526955893451E-002
  8.516801467880675E-002
  8.260056100923996E-002
  8.559875175137610E-002
  8.082250953502579E-002
 -0.157364891410918     
  9.223195277340945E-002
  6.629516425058846E-002
  6.721539597847304E-002
  8.380537235633101E-002
  5.191952330193939E-002
 -0.416465645479246     
  0.226526203093646     
[GTO] (AU)
   1
   s  10
  0.823600000E+04  0.530999862E-03
  0.123500000E+04  0.410799893E-02
  0.280800000E+03  0.210869945E-01
  0.792700000E+02  0.818529787E-01
  0.255900000E+02  0.234816939E+00
  0.899700000E+01  0.434400887E+00
  0.331900000E+01  0.346128910E+00
  0.905900000E+00  0.393779897E-01
  0.364300000E+00 -0.898299766E-02
  0.128500000E+00  0.238499938E-02
   s  10
  0.823600000E+04 -0.112999941E-03
  0.123500000E+04 -0.877999545E-03
  0.280800000E+03 -0.453999765E-02
  0.792700000E+02 -0.181329906E-01
  0.255900000E+02 -0.557599711E-01
  0.899700000E+01 -0.126894934E+00
  0.331900000E+01 -0.170351912E+00
  0.905900000E+00  0.140381927E+00
  0.364300000E+00  0.598683690E+00
  0.128500000E+00  0.395388795E+00
   s   1
  0.905900000E+00  0.100000000E+01
   s   1
  0.128500000E+00  0.100000000E+01
   p   5
  0.187100000E+02  0.140309984E-01
  0.413300000E+01  0.868659900E-01
  0.120000000E+01  0.290215966E+00
  0.382700000E+00  0.501007942E+00
  0.120900000E+00  0.343405960E+00
   p   1
  0.382700000E+00  0.100000000E+01
   p   1
  0.120900000E+00  0.100000000E+01
   d   1
  0.109700000E+01  0.100000000E+01
   d   1
  0.318000000E+00  0.100000000E+01
   f   1
  0.761000000E+00  0.100000000E+01
 
   2
   s  10
  0.823600000E+04  0.530999862E-03
  0.123500000E+04  0.410799893E-02
  0.280800000E+03  0.210869945E-01
  0.792700000E+02  0.818529787E-01
  0.255900000E+02  0.234816939E+00
  0.899700000E+01  0.434400887E+00
  0.331900000E+01  0.346128910E+00
  0.905900000E+00  0.393779897E-01
  0.364300000E+00 -0.898299766E-02
  0.128500000E+00  0.238499938E-02
   s  10
  0.823600000E+04 -0.112999941E-03
  0.123500000E+04 -0.877999545E-03
  0.280800000E+03 -0.453999765E-02
  0.792700000E+02 -0.181329906E-01
  0.255900000E+02 -0.557599711E-01
  0.899700000E+01 -0.126894934E+00
  0.331900000E+01 -0.170351912E+00
  0.905900000E+00  0.140381927E+00
  0.364300000E+00  0.598683690E+00
  0.128500000E+00  0.395388795E+00
   s   1
  0.905900000E+00  0.100000000E+01
   s   1
  0.128500000E+00  0.100000000E+01
   p   5
  0.187100000E+02  0.140309984E-01
  0.413300000E+01  0.868659900E-01
  0.120000000E+01  0.290215966E+00
  0.382700000E+00  0.501007942E+00
  0.120900000E+00  0.343405960E+00
   p   1
  0.382700000E+00  0.100000000E+01
   p   1
  0.120900000E+00  0.100000000E+01
   d   1
  0.109700000E+01  0.100000000E+01
   d   1
  0.318000000E+00  0.100000000E+01
   f   1
  0.761000000E+00  0.100000000E+01
 
   3
   s   5
  0.338700000E+02  0.606799922E-02
  0.509500000E+01  0.453079942E-01
  0.115900000E+01  0.202821974E+00
  0.325800000E+00  0.503902935E+00
  0.102700000E+00  0.383420951E+00
   s   1
  0.325800000E+00  0.100000000E+01
   s   1
  0.102700000E+00  0.100000000E+01
   p   1
  0.140700000E+01  0.100000000E+01
   p   1
  0.388000000E+00  0.100000000E+01
   d   1
  0.105700000E+01  0.100000000E+01
 
   4
   s   5
  0.338700000E+02  0.606799922E-02
  0.509500000E+01  0.453079942E-01
  0.115900000E+01  0.202821974E+00
  0.325800000E+00  0.503902935E+00
  0.102700000E+00  0.383420951E+00
   s   1
  0.325800000E+00  0.100000000E+01
   s   1
  0.102700000E+00  0.100000000E+01
   p   1
  0.140700000E+01  0.100000000E+01
   p   1
  0.388000000E+00  0.100000000E+01
   d   1
  0.105700000E+01  0.100000000E+01
 
   5
   s   5
  0.338700000E+02  0.606799922E-02
  0.509500000E+01  0.453079942E-01
  0.115900000E+01  0.202821974E+00
  0.325800000E+00  0.503902935E+00
  0.102700000E+00  0.383420951E+00
   s   1
  0.325800000E+00  0.100000000E+01
   s   1
  0.102700000E+00  0.100000000E+01
   p   1
  0.140700000E+01  0.100000000E+01
   p   1
  0.388000000E+00  0.100000000E+01
   d   1
  0.105700000E+01  0.100000000E+01
 
   6
   s   5
  0.338700000E+02  0.606799922E-02
  0.509500000E+01  0.453079942E-01
  0.115900000E+01  0.202821974E+00
  0.325800000E+00  0.503902935E+00
  0.102700000E+00  0.383420951E+00
   s   1
  0.325800000E+00  0.100000000E+01
   s   1
  0.102700000E+00  0.100000000E+01
   p   1
  0.140700000E+01  0.100000000E+01
   p   1
  0.388000000E+00  0.100000000E+01
   d   1
  0.105700000E+01  0.100000000E+01
 
   7
   s   5
  0.338700000E+02  0.606799922E-02
  0.509500000E+01  0.453079942E-01
  0.115900000E+01  0.202821974E+00
  0.325800000E+00  0.503902935E+00
  0.102700000E+00  0.383420951E+00
   s   1
  0.325800000E+00  0.100000000E+01
   s   1
  0.102700000E+00  0.100000000E+01
   p   1
  0.140700000E+01  0.100000000E+01
   p   1
  0.388000000E+00  0.100000000E+01
   d   1
  0.105700000E+01  0.100000000E+01
 
   8
   s  10
  0.823600000E+04  0.530999862E-03
  0.123500000E+04  0.410799893E-02
  0.280800000E+03  0.210869945E-01
  0.792700000E+02  0.818529787E-01
  0.255900000E+02  0.234816939E+00
  0.899700000E+01  0.434400887E+00
  0.331900000E+01  0.346128910E+00
  0.905900000E+00  0.393779897E-01
  0.364300000E+00 -0.898299766E-02
  0.128500000E+00  0.238499938E-02
   s  10
  0.823600000E+04 -0.112999941E-03
  0.123500000E+04 -0.877999545E-03
  0.280800000E+03 -0.453999765E-02
  0.792700000E+02 -0.181329906E-01
  0.255900000E+02 -0.557599711E-01
  0.899700000E+01 -0.126894934E+00
  0.331900000E+01 -0.170351912E+00
  0.905900000E+00  0.140381927E+00
  0.364300000E+00  0.598683690E+00
  0.128500000E+00  0.395388795E+00
   s   1
  0.905900000E+00  0.100000000E+01
   s   1
  0.128500000E+00  0.100000000E+01
   p   5
  0.187100000E+02  0.140309984E-01
  0.413300000E+01  0.868659900E-01
  0.120000000E+01  0.290215966E+00
  0.382700000E+00  0.501007942E+00
  0.120900000E+00  0.343405960E+00
   p   1
  0.382700000E+00  0.100000000E+01
   p   1
  0.120900000E+00  0.100000000E+01
   d   1
  0.109700000E+01  0.100000000E+01
   d   1
  0.318000000E+00  0.100000000E+01
   f   1
  0.761000000E+00  0.100000000E+01
 
   9
   s   5
  0.338700000E+02  0.606799922E-02
  0.509500000E+01  0.453079942E-01
  0.115900000E+01  0.202821974E+00
  0.325800000E+00  0.503902935E+00
  0.102700000E+00  0.383420951E+00
   s   1
  0.325800000E+00  0.100000000E+01
   s   1
  0.102700000E+00  0.100000000E+01
   p   1
  0.140700000E+01  0.100000000E+01
   p   1
  0.388000000E+00  0.100000000E+01
   d   1
  0.105700000E+01  0.100000000E+01
 
  10
   s  10
  0.823600000E+04  0.530999862E-03
  0.123500000E+04  0.410799893E-02
  0.280800000E+03  0.210869945E-01
  0.792700000E+02  0.818529787E-01
  0.255900000E+02  0.234816939E+00
  0.899700000E+01  0.434400887E+00
  0.331900000E+01  0.346128910E+00
  0.905900000E+00  0.393779897E-01
  0.364300000E+00 -0.898299766E-02
  0.128500000E+00  0.238499938E-02
   s  10
  0.823600000E+04 -0.112999941E-03
  0.123500000E+04 -0.877999545E-03
  0.280800000E+03 -0.453999765E-02
  0.792700000E+02 -0.181329906E-01
  0.255900000E+02 -0.557599711E-01
  0.899700000E+01 -0.126894934E+00
  0.331900000E+01 -0.170351912E+00
  0.905900000E+00  0.140381927E+00
  0.364300000E+00  0.598683690E+00
  0.128500000E+00  0.395388795E+00
   s   1
  0.905900000E+00  0.100000000E+01
   s   1
  0.128500000E+00  0.100000000E+01
   p   5
  0.187100000E+02  0.140309984E-01
  0.413300000E+01  0.868659900E-01
  0.120000000E+01  0.290215966E+00
  0.382700000E+00  0.501007942E+00
  0.120900000E+00  0.343405960E+00
   p   1
  0.382700000E+00  0.100000000E+01
   p   1
  0.120900000E+00  0.100000000E+01
   d   1
  0.109700000E+01  0.100000000E+01
   d   1
  0.318000000E+00  0.100000000E+01
   f   1
  0.761000000E+00  0.100000000E+01
 
  11
   s   5
  0.338700000E+02  0.606799922E-02
  0.509500000E+01  0.453079942E-01
  0.115900000E+01  0.202821974E+00
  0.325800000E+00  0.503902935E+00
  0.102700000E+00  0.383420951E+00
   s   1
  0.325800000E+00  0.100000000E+01
   s   1
  0.102700000E+00  0.100000000E+01
   p   1
  0.140700000E+01  0.100000000E+01
   p   1
  0.388000000E+00  0.100000000E+01
   d   1
  0.105700000E+01  0.100000000E+01
 
  12
   s   5
  0.338700000E+02  0.606799922E-02
  0.509500000E+01  0.453079942E-01
  0.115900000E+01  0.202821974E+00
  0.325800000E+00  0.503902935E+00
  0.102700000E+00  0.383420951E+00
   s   1
  0.325800000E+00  0.100000000E+01
   s   1
  0.102700000E+00  0.100000000E+01
   p   1
  0.140700000E+01  0.100000000E+01
   p   1
  0.388000000E+00  0.100000000E+01
   d   1
  0.105700000E+01  0.100000000E+01
 
  13
   s   5
  0.338700000E+02  0.606799922E-02
  0.509500000E+01  0.453079942E-01
  0.115900000E+01  0.202821974E+00
  0.325800000E+00  0.503902935E+00
  0.102700000E+00  0.383420951E+00
   s   1
  0.325800000E+00  0.100000000E+01
   s   1
  0.102700000E+00  0.100000000E+01
   p   1
  0.140700000E+01  0.100000000E+01
   p   1
  0.388000000E+00  0.100000000E+01
   d   1
  0.105700000E+01  0.100000000E+01
 
  14
   s  10
  0.153300000E+05  0.507999668E-03
  0.229900000E+04  0.392899743E-02
  0.522400000E+03  0.202429868E-01
  0.147300000E+03  0.791809483E-01
  0.475500000E+02  0.230686849E+00
  0.167600000E+02  0.433117717E+00
  0.620700000E+01  0.350259771E+00
  0.175200000E+01  0.427279721E-01
  0.688200000E+00 -0.815399467E-02
  0.238400000E+00  0.238099844E-02
   s  10
  0.153300000E+05 -0.115000060E-03
  0.229900000E+04 -0.895000470E-03
  0.522400000E+03 -0.463600243E-02
  0.147300000E+03 -0.187240098E-01
  0.475500000E+02 -0.584630307E-01
  0.167600000E+02 -0.136463072E+00
  0.620700000E+01 -0.175740092E+00
  0.175200000E+01  0.160934084E+00
  0.688200000E+00  0.603418317E+00
  0.238400000E+00  0.378765199E+00
   s   1
  0.175200000E+01  0.100000000E+01
   s   1
  0.238400000E+00  0.100000000E+01
   p   5
  0.344600000E+02  0.159279907E-01
  0.774900000E+01  0.997399420E-01
  0.228000000E+01  0.310491820E+00
  0.715600000E+00  0.491025715E+00
  0.214000000E+00  0.336336805E+00
   p   1
  0.715600000E+00  0.100000000E+01
   p   1
  0.214000000E+00  0.100000000E+01
   d   1
  0.231400000E+01  0.100000000E+01
   d   1
  0.645000000E+00  0.100000000E+01
   f   1
  0.142800000E+01  0.100000000E+01
 
  15
   s   5
  0.338700000E+02  0.606799922E-02
  0.509500000E+01  0.453079942E-01
  0.115900000E+01  0.202821974E+00
  0.325800000E+00  0.503902935E+00
  0.102700000E+00  0.383420951E+00
   s   1
  0.325800000E+00  0.100000000E+01
   s   1
  0.102700000E+00  0.100000000E+01
   p   1
  0.140700000E+01  0.100000000E+01
   p   1
  0.388000000E+00  0.100000000E+01
   d   1
  0.105700000E+01  0.100000000E+01
 
[MO]
Sym=     1a  
Ene=   -20.5520
Spin= Alpha
Occup=    2.00000
   1         0.00001575
   2         0.00004821
   3        -0.00001446
   4        -0.00017431
   5         0.00000207
   6        -0.00001838
   7        -0.00003057
   8         0.00000083
   9         0.00007712
  10         0.00009757
  11         0.00003582
  12        -0.00003663
  13        -0.00013698
  14         0.00000022
  15        -0.00000091
  16         0.00000501
  17        -0.00000466
  18         0.00000501
  19         0.00005631
  20         0.00000585
  21         0.00006800
  22        -0.00000864
  23        -0.00002378
  24         0.00000155
  25         0.00000407
  26         0.00001104
  27        -0.00000485
  28        -0.00000300
  29         0.00000212
  30         0.00000062
  31         0.00010123
  32         0.00033669
  33        -0.00001948
  34        -0.00127026
  35         0.00000175
  36         0.00001555
  37         0.00001268
  38         0.00011834
  39         0.00007236
  40        -0.00015592
  41        -0.00042659
  42        -0.00073870
  43         0.00000499
  44        -0.00002192
  45        -0.00000734
  46        -0.00001824
  47        -0.00001089
  48         0.00003113
  49         0.00013286
  50        -0.00004212
  51         0.00002516
  52         0.00006239
  53        -0.00008320
  54        -0.00000964
  55        -0.00000570
  56         0.00000269
  57        -0.00001099
  58         0.00001612
  59        -0.00000635
  60        -0.00001026
  61         0.00000311
  62         0.00004522
  63        -0.00001864
  64         0.00000210
  65         0.00000546
  66         0.00000255
  67        -0.00000406
  68        -0.00003514
  69        -0.00003635
  70         0.00000415
  71        -0.00000208
  72        -0.00000203
  73         0.00000399
  74        -0.00000520
  75         0.00000275
  76         0.00000364
  77        -0.00004701
  78        -0.00000446
  79         0.00000002
  80        -0.00000550
  81         0.00000182
  82         0.00000923
  83         0.00003231
  84        -0.00000446
  85        -0.00000507
  86         0.00000047
  87        -0.00000114
  88        -0.00000063
  89         0.00000196
  90        -0.00000510
  91        -0.00005444
  92         0.00000474
  93        -0.00000530
  94        -0.00000126
  95        -0.00001518
  96         0.00001978
  97         0.00002199
  98         0.00000247
  99         0.00000295
 100        -0.00000266
 101        -0.00000007
 102         0.00000439
 103        -0.00010107
 104         0.00027137
 105         0.00005970
 106        -0.00000136
 107        -0.00000764
 108        -0.00001328
 109        -0.00001274
 110         0.00005981
 111        -0.00002412
 112        -0.00000020
 113         0.00000920
 114         0.00000144
 115        -0.00000604
 116        -0.00000143
 117        -0.00009981
 118         0.00028645
 119         0.00006788
 120         0.00000268
 121        -0.00001008
 122        -0.00001181
 123         0.00007361
 124         0.00001976
 125         0.00000802
 126        -0.00000723
 127         0.00000186
 128         0.00000683
 129         0.00000391
 130        -0.00000110
 131         0.00000944
 132         0.00002722
 133        -0.00000163
 134         0.00154375
 135        -0.00000313
 136        -0.00001376
 137        -0.00000898
 138         0.00002638
 139         0.00008161
 140         0.00005809
 141        -0.00010126
 142         0.00022425
 143         0.00055273
 144        -0.00001126
 145        -0.00002802
 146        -0.00003126
 147        -0.00000731
 148         0.00004629
 149         0.00005147
 150         0.00017020
 151         0.00016209
 152         0.00004226
 153        -0.00027930
 154         0.00000806
 155         0.00000200
 156         0.00002172
 157        -0.00000430
 158         0.00000625
 159         0.00001535
 160        -0.00000609
 161        -0.00015366
 162        -0.00002619
 163         0.00018787
 164        -0.00000088
 165        -0.00001765
 166        -0.00000464
 167         0.00004654
 168         0.00010909
 169        -0.00003584
 170        -0.00002334
 171        -0.00000349
 172        -0.00000080
 173        -0.00002100
 174        -0.00000303
 175         0.00034121
 176         0.00118083
 177        -0.00047029
 178        -0.00278470
 179        -0.00013209
 180        -0.00011295
 181         0.00023470
 182         0.00083484
 183         0.00076279
 184        -0.00134804
 185        -0.00028227
 186        -0.00000179
 187         0.00046455
 188        -0.00000378
 189        -0.00017985
 190        -0.00015824
 191         0.00000705
 192         0.00016583
 193         0.00012999
 194        -0.00070746
 195        -0.00036119
 196        -0.00001314
 197         0.00056639
 198         0.00009679
 199         0.00005147
 200         0.00012593
 201        -0.00001205
 202        -0.00020509
 203        -0.00009382
 204         0.00007024
 205        -0.00013513
 206        -0.00001981
 207         0.00019995
 208        -0.00000609
 209        -0.00001155
 210        -0.00001069
 211         0.00008747
 212         0.00006884
 213        -0.00000708
 214        -0.00001113
 215         0.00001973
 216        -0.00000204
 217         0.00000459
 218         0.00002078
 219        -0.00005663
 220         0.00088726
 221         0.00014514
 222        -0.00001913
 223         0.00000278
 224         0.00000164
 225        -0.00007294
 226         0.00004653
 227        -0.00034830
 228         0.00001203
 229         0.00005285
 230         0.00003326
 231        -0.00000350
 232        -0.00002718
 233         0.00001982
 234         0.00053658
 235         0.00007621
 236         0.00001119
 237         0.00000132
 238        -0.00000290
 239         0.00012692
 240        -0.00004175
 241        -0.00016859
 242         0.00001321
 243         0.00003040
 244         0.00004980
 245         0.00000246
 246        -0.00001517
 247         0.99887991
 248        -0.00236497
 249         0.00132311
 250         0.00086872
 251        -0.00478436
 252        -0.00037963
 253        -0.00009159
 254         0.00400084
 255         0.00054479
 256        -0.00016099
 257         0.00143651
 258        -0.00021955
 259         0.00034569
 260        -0.00000807
 261         0.00001869
 262         0.00000741
 263         0.00000788
 264        -0.00001214
 265        -0.00006120
 266         0.00001051
 267         0.00051639
 268        -0.00014394
 269        -0.00007400
 270         0.00000290
 271         0.00003851
 272        -0.00000036
 273         0.00001273
 274        -0.00010592
 275        -0.00001278
 276         0.00000257
 277         0.00180585
 278        -0.00001880
 279        -0.00070355
 280         0.00015581
 281        -0.00014602
 282         0.00020486
 283         0.00027893
 284        -0.00024928
 285         0.00036126
 286         0.00001878
 287        -0.00005101
 288        -0.00002133
 289        -0.00003195
 290         0.00003787
Sym=     2a  
Ene=   -11.2730
Spin= Alpha
Occup=    2.00000
   1        -0.00000406
   2        -0.00007107
   3         0.00003348
   4        -0.00104228
   5         0.00000794
   6         0.00003970
   7         0.00003353
   8        -0.00006767
   9        -0.00018715
  10        -0.00009059
  11        -0.00023605
  12        -0.00048655
  13        -0.00012294
  14         0.00000370
  15        -0.00000210
  16        -0.00000336
  17         0.00000464
  18        -0.00000510
  19        -0.00001306
  20        -0.00004820
  21        -0.00013791
  22         0.00006398
  23        -0.00000112
  24         0.00000704
  25         0.00000255
  26        -0.00001369
  27         0.00002117
  28        -0.00000744
  29         0.00001158
  30         0.00000879
  31        -0.00008247
  32        -0.00005376
  33        -0.00000664
  34         0.00024416
  35         0.00001112
  36         0.00005618
  37         0.00004537
  38        -0.00013214
  39        -0.00025722
  40        -0.00003735
  41        -0.00022904
  42        -0.00077477
  43        -0.00041764
  44         0.00001730
  45         0.00000513
  46         0.00000195
  47         0.00001327
  48        -0.00003027
  49        -0.00005383
  50         0.00003676
  51         0.00014683
  52        -0.00009663
  53         0.00009473
  54         0.00000818
  55         0.00000897
  56         0.00002948
  57        -0.00000070
  58        -0.00000472
  59         0.00003873
  60         0.00000236
  61        -0.00003543
  62        -0.00003310
  63        -0.00010044
  64         0.00000078
  65        -0.00000057
  66        -0.00000316
  67        -0.00001873
  68        -0.00000398
  69         0.00003746
  70        -0.00000201
  71         0.00000225
  72         0.00000309
  73        -0.00000247
  74         0.00000112
  75        -0.00001297
  76         0.00008292
  77        -0.00005799
  78         0.00000080
  79         0.00000842
  80         0.00000172
  81        -0.00003094
  82        -0.00003706
  83        -0.00001103
  84         0.00000510
  85         0.00000337
  86         0.00000129
  87         0.00000939
  88        -0.00000345
  89        -0.00001311
  90         0.00008152
  91        -0.00006007
  92         0.00000575
  93         0.00000522
  94         0.00000347
  95        -0.00001366
  96        -0.00004621
  97        -0.00000137
  98         0.00000289
  99        -0.00000169
 100        -0.00000139
 101        -0.00000174
 102        -0.00001167
 103         0.00011660
 104        -0.00001226
 105         0.00005441
 106         0.00001158
 107         0.00000739
 108        -0.00001349
 109        -0.00006088
 110        -0.00005124
 111         0.00004199
 112         0.00000042
 113        -0.00000063
 114         0.00002306
 115         0.00002181
 116        -0.00000856
 117         0.00010408
 118        -0.00001701
 119         0.00008872
 120         0.00000962
 121         0.00000855
 122        -0.00001348
 123        -0.00004479
 124        -0.00004863
 125         0.00004331
 126         0.00001875
 127         0.00000959
 128        -0.00000171
 129        -0.00001558
 130        -0.00001855
 131         0.00585654
 132         0.00012832
 133         0.00022680
 134        -0.00274400
 135         0.00021890
 136         0.00066990
 137         0.00039012
 138        -0.00019529
 139        -0.00058178
 140        -0.00042737
 141        -0.00078271
 142        -0.00168357
 143        -0.00058966
 144        -0.00000153
 145         0.00001543
 146        -0.00001255
 147         0.00000942
 148        -0.00002463
 149         0.00001044
 150        -0.00018504
 151        -0.00055461
 152         0.00035240
 153        -0.00009571
 154         0.00014630
 155        -0.00005823
 156        -0.00000572
 157         0.00018792
 158        -0.00008851
 159         0.00017040
 160         0.00007855
 161        -0.00000005
 162        -0.00003814
 163        -0.00006110
 164        -0.00001934
 165        -0.00003099
 166         0.00000438
 167        -0.00006040
 168        -0.00011559
 169        -0.00014211
 170        -0.00000244
 171         0.00001102
 172        -0.00003319
 173         0.00006471
 174         0.00000262
 175         0.99989090
 176         0.00312895
 177         0.00090962
 178         0.00463913
 179         0.00150550
 180         0.00169148
 181        -0.00157059
 182        -0.00162466
 183        -0.00145293
 184         0.00215052
 185        -0.00122471
 186        -0.00192376
 187         0.00054648
 188         0.00003048
 189         0.00004189
 190        -0.00002747
 191         0.00006860
 192        -0.00013853
 193        -0.00010430
 194         0.00050440
 195         0.00030811
 196         0.00005856
 197        -0.00044607
 198         0.00011079
 199         0.00044128
 200        -0.00014939
 201         0.00027397
 202        -0.00052421
 203         0.00012858
 204         0.00031837
 205         0.00003833
 206        -0.00015071
 207        -0.00010554
 208        -0.00001810
 209        -0.00002489
 210         0.00000109
 211        -0.00000347
 212        -0.00014578
 213        -0.00014306
 214        -0.00001592
 215        -0.00001948
 216        -0.00004912
 217        -0.00000737
 218        -0.00004440
 219         0.00089799
 220        -0.00217509
 221        -0.00112123
 222         0.00016249
 223        -0.00009127
 224         0.00028168
 225         0.00039954
 226        -0.00001785
 227         0.00058170
 228        -0.00016447
 229        -0.00022758
 230         0.00006164
 231        -0.00006073
 232         0.00005903
 233         0.00098709
 234        -0.00217596
 235        -0.00117146
 236        -0.00026388
 237         0.00016939
 238         0.00008681
 239        -0.00048713
 240         0.00049180
 241         0.00023573
 242         0.00010768
 243         0.00011219
 244        -0.00010008
 245        -0.00006560
 246         0.00024499
 247        -0.00002322
 248         0.00047622
 249         0.00005750
 250         0.00036173
 251        -0.00041100
 252        -0.00038548
 253         0.00045664
 254        -0.00000289
 255         0.00004417
 256        -0.00008741
 257        -0.00032142
 258         0.00019105
 259        -0.00020406
 260         0.00000214
 261        -0.00005858
 262        -0.00001952
 263        -0.00000695
 264         0.00004459
 265        -0.00000950
 266         0.00017646
 267         0.00002720
 268         0.00003546
 269        -0.00012711
 270         0.00008207
 271         0.00004296
 272         0.00006108
 273        -0.00002426
 274        -0.00013142
 275        -0.00004255
 276         0.00007883
 277        -0.00023289
 278        -0.00045194
 279         0.00011715
 280        -0.00000854
 281         0.00004382
 282        -0.00004236
 283         0.00002036
 284         0.00002783
 285        -0.00006687
 286         0.00000599
 287        -0.00001112
 288        -0.00006588
 289         0.00001375
 290         0.00001598
Sym=     3a  
Ene=   -11.2260
Spin= Alpha
Occup=    2.00000
   1         0.05132827
   2         0.00035882
   3         0.00024005
   4        -0.00214494
   5         0.00019767
   6         0.00057031
   7         0.00030286
   8         0.00005076
   9        -0.00005072
  10        -0.00018125
  11        -0.00022924
  12        -0.00071583
  13        -0.00044631
  14        -0.00000310
  15         0.00001020
  16        -0.00000711
  17         0.00001093
  18        -0.00001837
  19         0.00009168
  20        -0.00004381
  21        -0.00016666
  22         0.00018437
  23        -0.00020142
  24         0.00014938
  25        -0.00006954
  26         0.00002498
  27         0.00016353
  28        -0.00007796
  29         0.00017266
  30         0.00006083
  31         0.99603072
  32         0.00305412
  33         0.00131068
  34         0.00541660
  35        -0.00002122
  36        -0.00007436
  37        -0.00009691
  38        -0.00021057
  39         0.00040431
  40         0.00106004
  41         0.00022664
  42        -0.00006031
  43        -0.00053065
  44         0.00000855
  45         0.00007591
  46        -0.00002545
  47         0.00008669
  48        -0.00016643
  49         0.00004013
  50         0.00014710
  51        -0.00012678
  52         0.00024729
  53        -0.00041379
  54         0.00007071
  55         0.00045609
  56        -0.00017650
  57         0.00025682
  58        -0.00047603
  59         0.00009017
  60         0.00030961
  61        -0.00006281
  62         0.00029426
  63         0.00011191
  64        -0.00001138
  65        -0.00002819
  66        -0.00001211
  67         0.00007348
  68        -0.00004103
  69        -0.00021616
  70         0.00004393
  71        -0.00003445
  72        -0.00002293
  73         0.00003011
  74        -0.00002416
  75         0.00008661
  76        -0.00015308
  77        -0.00007768
  78         0.00000098
  79        -0.00001720
  80        -0.00000313
  81        -0.00010665
  82        -0.00019523
  83        -0.00010338
  84         0.00000090
  85        -0.00000046
  86        -0.00004985
  87         0.00006457
  88         0.00000824
  89         0.00008828
  90        -0.00015413
  91        -0.00008901
  92        -0.00001122
  93        -0.00000985
  94        -0.00000858
  95        -0.00005769
  96        -0.00022509
  97        -0.00008210
  98        -0.00001170
  99        -0.00002922
 100        -0.00006707
 101         0.00000158
 102        -0.00003533
 103         0.00106976
 104        -0.00235015
 105        -0.00123477
 106         0.00018213
 107        -0.00008658
 108         0.00027444
 109         0.00030772
 110        -0.00014393
 111         0.00074134
 112        -0.00021943
 113        -0.00025174
 114         0.00012008
 115        -0.00005862
 116         0.00007247
 117         0.00106878
 118        -0.00232724
 119        -0.00122631
 120        -0.00027800
 121         0.00018281
 122         0.00006918
 123        -0.00062602
 124         0.00040082
 125         0.00031874
 126         0.00013259
 127         0.00014436
 128        -0.00009239
 129        -0.00012103
 130         0.00027057
 131         0.06839979
 132         0.00060022
 133         0.00024777
 134        -0.00231475
 135        -0.00043550
 136        -0.00038704
 137         0.00043534
 138         0.00021297
 139         0.00008026
 140        -0.00035378
 141         0.00061293
 142         0.00049228
 143        -0.00069030
 144        -0.00001812
 145         0.00001157
 146        -0.00001842
 147         0.00000791
 148        -0.00000926
 149         0.00000457
 150         0.00029102
 151         0.00024655
 152         0.00002983
 153        -0.00030424
 154         0.00011846
 155         0.00001683
 156         0.00011129
 157        -0.00006717
 158        -0.00019118
 159        -0.00013775
 160         0.00006399
 161         0.00012480
 162        -0.00033030
 163        -0.00020832
 164         0.00002505
 165         0.00000720
 166        -0.00000495
 167         0.00017541
 168         0.00009937
 169        -0.00018661
 170        -0.00000964
 171         0.00005649