[Molden Format]
[Title]
 Molden file created by orca_2mkl for BaseName=butanol2

[Atoms] AU
C    1   6         -7.8434217024       -11.8314430437        -3.1953001253 
C    2   6         -7.0031360797        -9.4011607491        -1.8905198189 
H    3   1         -9.0686634359       -12.9379343868        -1.9000818331 
H    4   1         -6.1757005947       -13.0002386575        -3.7049592636 
H    5   1         -8.9321496199       -11.3871873268        -4.9343961891 
H    6   1         -5.9564545686        -9.8998027841        -0.1380444941 
H    7   1         -8.7071777237        -8.2896238371        -1.3651381591 
C    8   6         -5.3045557442        -7.8183828311        -3.6224160261 
H    9   1         -3.6027628743        -8.9344928804        -4.1475142269 
C   10   6         -4.4637032037        -5.3820912075        -2.3107004248 
H   11   1         -6.3566985638        -7.3262603513        -5.3739842824 
H   12   1         -3.3988047327        -5.8488346653        -0.5626470591 
H   13   1         -6.1261330782        -4.2230465805        -1.7388692967 
O   14   8         -2.8762765594        -3.9822765738        -3.9028702816 
H   15   1         -3.9863205877        -3.1147033057        -5.1420203994 
[GTO]
  1 0
s   8 1.0 
     8236.0000000000         0.3342267437
     1235.0000000000         0.6230746416
      280.8000000000         1.0531059072
       79.2700000000         1.5831631342
       25.5900000000         1.9450988312
        8.9970000000         1.6429469100
        3.3190000000         0.6196591261
        0.3643000000        -0.0030667276
s   8 1.0 
     8236.0000000000        -0.1210101098
     1235.0000000000        -0.2265691066
      280.8000000000        -0.3857532897
       79.2700000000        -0.5967016836
       25.5900000000        -0.7858351262
        8.9970000000        -0.8165330321
        3.3190000000        -0.5188700868
        0.3643000000         0.3477346660
s   1 1.0 
        0.9059000000         0.6617901318
s   1 1.0 
        0.1285000000         0.1529633682
p   3 1.0 
       18.7100000000         2.1868515589
        4.1330000000         2.0503123413
        1.2000000000         1.4599445297
p   1 1.0 
        0.3827000000         0.4290551959
p   1 1.0 
        0.1209000000         0.1016185431
d   1 1.0 
        1.0970000000         3.3522135855
d   1 1.0 
        0.3180000000         0.3838994974
f   1 1.0 
        0.7610000000         3.0840084332

  2 0
s   8 1.0 
     8236.0000000000         0.3342267437
     1235.0000000000         0.6230746416
      280.8000000000         1.0531059072
       79.2700000000         1.5831631342
       25.5900000000         1.9450988312
        8.9970000000         1.6429469100
        3.3190000000         0.6196591261
        0.3643000000        -0.0030667276
s   8 1.0 
     8236.0000000000        -0.1210101098
     1235.0000000000        -0.2265691066
      280.8000000000        -0.3857532897
       79.2700000000        -0.5967016836
       25.5900000000        -0.7858351262
        8.9970000000        -0.8165330321
        3.3190000000        -0.5188700868
        0.3643000000         0.3477346660
s   1 1.0 
        0.9059000000         0.6617901318
s   1 1.0 
        0.1285000000         0.1529633682
p   3 1.0 
       18.7100000000         2.1868515589
        4.1330000000         2.0503123413
        1.2000000000         1.4599445297
p   1 1.0 
        0.3827000000         0.4290551959
p   1 1.0 
        0.1209000000         0.1016185431
d   1 1.0 
        1.0970000000         3.3522135855
d   1 1.0 
        0.3180000000         0.3838994974
f   1 1.0 
        0.7610000000         3.0840084332

  3 0
s   3 1.0 
       33.8700000000         0.2551080577
        5.0950000000         0.4600978881
        1.1590000000         0.6784140671
s   1 1.0 
        0.3258000000         0.3073430538
s   1 1.0 
        0.1027000000         0.1292968442
p   1 1.0 
        1.4070000000         2.1842769845
p   1 1.0 
        0.3880000000         0.4364954740
d   1 1.0 
        1.0570000000         3.1412413909

  4 0
s   3 1.0 
       33.8700000000         0.2551080577
        5.0950000000         0.4600978881
        1.1590000000         0.6784140671
s   1 1.0 
        0.3258000000         0.3073430538
s   1 1.0 
        0.1027000000         0.1292968442
p   1 1.0 
        1.4070000000         2.1842769845
p   1 1.0 
        0.3880000000         0.4364954740
d   1 1.0 
        1.0570000000         3.1412413909

  5 0
s   3 1.0 
       33.8700000000         0.2551080577
        5.0950000000         0.4600978881
        1.1590000000         0.6784140671
s   1 1.0 
        0.3258000000         0.3073430538
s   1 1.0 
        0.1027000000         0.1292968442
p   1 1.0 
        1.4070000000         2.1842769845
p   1 1.0 
        0.3880000000         0.4364954740
d   1 1.0 
        1.0570000000         3.1412413909

  6 0
s   3 1.0 
       33.8700000000         0.2551080577
        5.0950000000         0.4600978881
        1.1590000000         0.6784140671
s   1 1.0 
        0.3258000000         0.3073430538
s   1 1.0 
        0.1027000000         0.1292968442
p   1 1.0 
        1.4070000000         2.1842769845
p   1 1.0 
        0.3880000000         0.4364954740
d   1 1.0 
        1.0570000000         3.1412413909

  7 0
s   3 1.0 
       33.8700000000         0.2551080577
        5.0950000000         0.4600978881
        1.1590000000         0.6784140671
s   1 1.0 
        0.3258000000         0.3073430538
s   1 1.0 
        0.1027000000         0.1292968442
p   1 1.0 
        1.4070000000         2.1842769845
p   1 1.0 
        0.3880000000         0.4364954740
d   1 1.0 
        1.0570000000         3.1412413909

  8 0
s   8 1.0 
     8236.0000000000         0.3342267437
     1235.0000000000         0.6230746416
      280.8000000000         1.0531059072
       79.2700000000         1.5831631342
       25.5900000000         1.9450988312
        8.9970000000         1.6429469100
        3.3190000000         0.6196591261
        0.3643000000        -0.0030667276
s   8 1.0 
     8236.0000000000        -0.1210101098
     1235.0000000000        -0.2265691066
      280.8000000000        -0.3857532897
       79.2700000000        -0.5967016836
       25.5900000000        -0.7858351262
        8.9970000000        -0.8165330321
        3.3190000000        -0.5188700868
        0.3643000000         0.3477346660
s   1 1.0 
        0.9059000000         0.6617901318
s   1 1.0 
        0.1285000000         0.1529633682
p   3 1.0 
       18.7100000000         2.1868515589
        4.1330000000         2.0503123413
        1.2000000000         1.4599445297
p   1 1.0 
        0.3827000000         0.4290551959
p   1 1.0 
        0.1209000000         0.1016185431
d   1 1.0 
        1.0970000000         3.3522135855
d   1 1.0 
        0.3180000000         0.3838994974
f   1 1.0 
        0.7610000000         3.0840084332

  9 0
s   3 1.0 
       33.8700000000         0.2551080577
        5.0950000000         0.4600978881
        1.1590000000         0.6784140671
s   1 1.0 
        0.3258000000         0.3073430538
s   1 1.0 
        0.1027000000         0.1292968442
p   1 1.0 
        1.4070000000         2.1842769845
p   1 1.0 
        0.3880000000         0.4364954740
d   1 1.0 
        1.0570000000         3.1412413909

 10 0
s   8 1.0 
     8236.0000000000         0.3342267437
     1235.0000000000         0.6230746416
      280.8000000000         1.0531059072
       79.2700000000         1.5831631342
       25.5900000000         1.9450988312
        8.9970000000         1.6429469100
        3.3190000000         0.6196591261
        0.3643000000        -0.0030667276
s   8 1.0 
     8236.0000000000        -0.1210101098
     1235.0000000000        -0.2265691066
      280.8000000000        -0.3857532897
       79.2700000000        -0.5967016836
       25.5900000000        -0.7858351262
        8.9970000000        -0.8165330321
        3.3190000000        -0.5188700868
        0.3643000000         0.3477346660
s   1 1.0 
        0.9059000000         0.6617901318
s   1 1.0 
        0.1285000000         0.1529633682
p   3 1.0 
       18.7100000000         2.1868515589
        4.1330000000         2.0503123413
        1.2000000000         1.4599445297
p   1 1.0 
        0.3827000000         0.4290551959
p   1 1.0 
        0.1209000000         0.1016185431
d   1 1.0 
        1.0970000000         3.3522135855
d   1 1.0 
        0.3180000000         0.3838994974
f   1 1.0 
        0.7610000000         3.0840084332

 11 0
s   3 1.0 
       33.8700000000         0.2551080577
        5.0950000000         0.4600978881
        1.1590000000         0.6784140671
s   1 1.0 
        0.3258000000         0.3073430538
s   1 1.0 
        0.1027000000         0.1292968442
p   1 1.0 
        1.4070000000         2.1842769845
p   1 1.0 
        0.3880000000         0.4364954740
d   1 1.0 
        1.0570000000         3.1412413909

 12 0
s   3 1.0 
       33.8700000000         0.2551080577
        5.0950000000         0.4600978881
        1.1590000000         0.6784140671
s   1 1.0 
        0.3258000000         0.3073430538
s   1 1.0 
        0.1027000000         0.1292968442
p   1 1.0 
        1.4070000000         2.1842769845
p   1 1.0 
        0.3880000000         0.4364954740
d   1 1.0 
        1.0570000000         3.1412413909

 13 0
s   3 1.0 
       33.8700000000         0.2551080577
        5.0950000000         0.4600978881
        1.1590000000         0.6784140671
s   1 1.0 
        0.3258000000         0.3073430538
s   1 1.0 
        0.1027000000         0.1292968442
p   1 1.0 
        1.4070000000         2.1842769845
p   1 1.0 
        0.3880000000         0.4364954740
d   1 1.0 
        1.0570000000         3.1412413909

 14 0
s   8 1.0 
    15330.0000000000         0.5107820689
     2299.0000000000         0.9520320559
      522.4000000000         1.6143309227
      147.3000000000         2.4433650471
       47.5500000000         3.0486061870
       16.7600000000         2.6183461361
        6.2070000000         1.0052339944
        0.6882000000        -0.0044964733
s   8 1.0 
    15330.0000000000        -0.1936657939
     2299.0000000000        -0.3632249960
      522.4000000000        -0.6192189910
      147.3000000000        -0.9677187516
       47.5500000000        -1.2940243602
       16.7600000000        -1.3817163263
        6.2070000000        -0.8447542687
        0.6882000000         0.5573175589
s   1 1.0 
        1.7520000000         1.0853271534
s   1 1.0 
        0.2384000000         0.2431586819
p   3 1.0 
       34.4600000000         4.8988750613
        7.7490000000         4.7502609215
        2.2800000000         3.2044979545
p   1 1.0 
        0.7156000000         0.9381623559
p   1 1.0 
        0.2140000000         0.2074709543
d   1 1.0 
        2.3140000000        12.3767310624
d   1 1.0 
        0.6450000000         1.3234257612
f   1 1.0 
        1.4280000000        12.7097950062

 15 0
s   3 1.0 
       33.8700000000         0.2551080577
        5.0950000000         0.4600978881
        1.1590000000         0.6784140671
s   1 1.0 
        0.3258000000         0.3073430538
s   1 1.0 
        0.1027000000         0.1292968442
p   1 1.0 
        1.4070000000         2.1842769845
p   1 1.0 
        0.3880000000         0.4364954740
d   1 1.0 
        1.0570000000         3.1412413909

[5D]
[7F]
[9G]
[MO]
 Sym=     1a
 Ene= -2.05522188471850E+01
 Spin= Alpha
 Occup= 2.000000
  1       0.000015416088
  2       0.000027733018
  3      -0.000007071880
  4      -0.000155238194
  5       0.000000736478
  6      -0.000006537914
  7      -0.000010877339
  8       0.000001862803
  9       0.000067908991
 10       0.000082253279
 11       0.000036531873
 12      -0.000042945093
 13      -0.000147483664
 14       0.000000221984
 15      -0.000000908753
 16       0.000005014847
 17      -0.000004659615
 18       0.000005007009
 19       0.000056307175
 20       0.000005853039
 21       0.000067989929
 22      -0.000008634028
 23      -0.000023776300
 24       0.000001551473
 25       0.000004064986
 26       0.000011041490
 27      -0.000004846532
 28      -0.000003001336
 29      -0.000002118015
 30      -0.000000615306
 31       0.000099092295
 32       0.000193715916
 33       0.000031772906
 34      -0.001136836870
 35       0.000000620504
 36       0.000005530674
 37       0.000004512758
 38       0.000119212265
 39       0.000080145627
 40      -0.000149575144
 41      -0.000425987233
 42      -0.000733374964
 43       0.000009330920
 44      -0.000021919564
 45      -0.000007343270
 46      -0.000018241144
 47      -0.000010891470
 48       0.000031130588
 49       0.000132849605
 50      -0.000042116589
 51       0.000025161220
 52       0.000062387784
 53      -0.000083189212
 54      -0.000009641310
 55      -0.000005701638
 56       0.000002691267
 57      -0.000010993309
 58       0.000016116877
 59       0.000006348928
 60       0.000010259002
 61       0.000000739193
 62       0.000046780938
 63      -0.000017440118
 64       0.000002099229
 65       0.000005457565
 66       0.000002554883
 67      -0.000004060049
 68      -0.000035135884
 69      -0.000036348933
 70       0.000004152185
 71      -0.000002084165
 72      -0.000002028920
 73       0.000003991836
 74      -0.000005198466
 75       0.000000653418
 76       0.000005023240
 77      -0.000045956374
 78      -0.000004461385
 79       0.000000022211
 80      -0.000005496665
 81       0.000001815224
 82       0.000009225572
 83       0.000032312773
 84      -0.000004455510
 85      -0.000005068886
 86       0.000000471290
 87      -0.000001135146
 88      -0.000000627684
 89       0.000000466865
 90      -0.000004110888
 91      -0.000053689281
 92       0.000004741911
 93      -0.000005302327
 94      -0.000001259246
 95      -0.000015180490
 96       0.000019783798
 97       0.000021988349
 98       0.000002465381
 99       0.000002947345
100      -0.000002658597
101      -0.000000074734
102       0.000004386681
103      -0.000024056571
104       0.000220442568
105       0.000020945955
106      -0.000001362474
107      -0.000007635674
108      -0.000013275281
109      -0.000012743009
110       0.000059812368
111      -0.000024122326
112      -0.000000204577
113       0.000009201234
114       0.000001437103
115      -0.000006034263
116      -0.000001427469
117      -0.000023755329
118       0.000236158209
119       0.000029614279
120       0.000002684076
121      -0.000010082065
122      -0.000011808156
123       0.000073607631
124       0.000019761244
125       0.000008019927
126      -0.000007228078
127       0.000001863425
128       0.000006828913
129       0.000003912795
130      -0.000001098078
131       0.000009228087
132       0.000015641552
133       0.000002567227
134       0.001554456873
135      -0.000001112761
136      -0.000004893997
137      -0.000003195997
138       0.000024815462
139       0.000074712539
140       0.000053588240
141      -0.000102316233
142       0.000219533692
143       0.000549624422
144      -0.000011263473
145      -0.000028020650
146      -0.000031255278
147      -0.000007312212
148       0.000046292773
149       0.000051458690
150       0.000170192863
151       0.000162082006
152       0.000042252991
153      -0.000279289098
154       0.000008060137
155       0.000002004360
156       0.000021720869
157      -0.000004295436
158       0.000006250035
159      -0.000015344225
160       0.000006093919
161      -0.000036570477
162      -0.000103599122
163       0.000128952685
164      -0.000000881344
165      -0.000017654079
166      -0.000004637021
167       0.000046530590
168       0.000109087945
169      -0.000035838053
170      -0.000023337114
171      -0.000003487101
172      -0.000000794715
173      -0.000020997717
174      -0.000003029744
175       0.000334000548
176       0.000679375673
177      -0.000291064841
178      -0.002316996379
179      -0.000047010888
180      -0.000040197681
181       0.000083525834
182       0.000768597872
183       0.000706158251
184      -0.001230372483
185      -0.000327665179
186      -0.000040627995
187       0.000545165799
188      -0.000003782001
189      -0.000179841477
190      -0.000158236446
191       0.000007049123
192       0.000165823162
193       0.000129962569
194      -0.000707413407
195      -0.000361167296
196      -0.000013149260
197       0.000566359232
198       0.000096782107
199       0.000051456881
200       0.000125921625
201      -0.000012042672
202      -0.000205074615
203       0.000093814164
204      -0.000070236996
205      -0.000032160940
206      -0.000087882970
207       0.000148137896
208      -0.000006085513
209      -0.000011554246
210      -0.000010691259
211       0.000087469238
212       0.000068836640
213      -0.000007075187
214      -0.000011133176
215       0.000019732949
216      -0.000002040035
217       0.000004585337
218       0.000020774479
219      -0.000013472742
220       0.000858702273
221       0.000123430034
222      -0.000019132331
223       0.000002777935
224       0.000001637630
225      -0.000072937062
226       0.000046535560
227      -0.000348284650
228       0.000012029552
229       0.000052851883
230       0.000033257961
231      -0.000003499007
232      -0.000027183161
233       0.000004722389
234       0.000546540551
235       0.000083814159
236       0.000011194500
237       0.000001315071
238      -0.000002904092
239       0.000126907955
240      -0.000041748371
241      -0.000168573311
242       0.000013211157
243       0.000030403627
244       0.000049801583
245       0.000002455387
246      -0.000015169921
247       0.975456207904
248      -0.001379056379
249       0.043622555832
250       0.002351308419
251      -0.001851214837
252      -0.000146741162
253      -0.000035410112
254       0.001651505633
255       0.000358252030
256      -0.000205959481
257      -0.000172677904
258      -0.000347225600
259       0.000314918314
260      -0.000008067241
261       0.000018725779
262       0.000007396160
263       0.000007908203
264      -0.000012139938
265      -0.000061204104
266       0.000010512248
267       0.000516369703
268      -0.000143920169
269      -0.000073975620
270       0.000002895735
271       0.000038514364
272      -0.000000359317
273       0.000012731271
274      -0.000105917691
275       0.000012782932
276      -0.000002562210
277       0.000429791144
278       0.000891158198
279      -0.000011145261
280       0.000155812018
281      -0.000146010963
282       0.000204864679
283       0.000278939646
284      -0.000249268031
285       0.000361263080
286       0.000018783235
287      -0.000051004918
288      -0.000021323244
289      -0.000031943678
290       0.000037874635
 Sym=     1a
 Ene= -1.12728879823366E+01
 Spin= Alpha
 Occup= 2.000000
  1      -0.000003972854
  2      -0.000040896918
  3       0.000023335592
  4      -0.001070383593
  5       0.000002826889
  6       0.000014124912
  7       0.000011930526
  8      -0.000063691752
  9      -0.000167241856
 10      -0.000073764567
 11      -0.000233324088
 12      -0.000472907734
 13      -0.000111404042
 14       0.000003701785
 15      -0.000002098921
 16      -0.000003359119
 17       0.000004634939
 18      -0.000005097040
 19      -0.000013056753
 20      -0.000048203431
 21      -0.000137900051
 22       0.000063965628
 23      -0.000001111089
 24       0.000007035097
 25       0.000002548079
 26      -0.000013693688
 27       0.000021167607
 28      -0.000007438414
 29      -0.000011577008
 30      -0.000008792294
 31      -0.000080734174
 32      -0.000030934566
 33      -0.000017426931
 34       0.000222660709
 35       0.000003955551
 36       0.000019992185
 37       0.000016144697
 38      -0.000126567249
 39      -0.000229057086
 40      -0.000014609081
 41      -0.000225230957
 42      -0.000755451765
 43      -0.000402042409
 44       0.000017304581
 45       0.000005133857
 46       0.000001952017
 47       0.000013273471
 48      -0.000030272373
 49      -0.000053828036
 50       0.000036762904
 51       0.000146825666
 52      -0.000096615426
 53       0.000094719329
 54       0.000008180835
 55       0.000008966966
 56       0.000029479119
 57      -0.000000699359
 58      -0.000004714386
 59      -0.000038727078
 60      -0.000002356884
 61      -0.000008432823
 62      -0.000050963614
 63      -0.000114033749
 64       0.000000775740
 65      -0.000000569490
 66      -0.000003158358
 67      -0.000018730680
 68      -0.000003984664
 69       0.000037466349
 70      -0.000002009649
 71       0.000002246617
 72       0.000003087358
 73      -0.000002466044
 74       0.000001118957
 75      -0.000003088974
 76       0.000076416350
 77      -0.000062948793
 78       0.000000802588
 79       0.000008419471
 80       0.000001717814
 81      -0.000030954080
 82      -0.000037048583
 83      -0.000011031918
 84       0.000005099694
 85       0.000003371378
 86       0.000001285904
 87       0.000009390653
 88      -0.000003452925
 89      -0.000003123224
 90       0.000074941899
 91      -0.000065090387
 92       0.000005747328
 93       0.000005214492
 94       0.000003468503
 95      -0.000013650731
 96      -0.000046211548
 97      -0.000001362056
 98       0.000002888162
 99      -0.000001692102
100      -0.000001388355
101      -0.000001739385
102      -0.000011672076
103       0.000027751374
104       0.000046484732
105       0.000099110444
106       0.000011577853
107       0.000007390510
108      -0.000013494338
109      -0.000060878815
110      -0.000051247025
111       0.000041995415
112       0.000000415328
113      -0.000000633612
114       0.000023060016
115       0.000021811121
116      -0.000008554947
117       0.000024772243
118       0.000035427174
119       0.000128616889
120       0.000009619367
121       0.000008552354
122      -0.000013483221
123      -0.000044799246
124      -0.000048623193
125       0.000043311566
126       0.000018748118
127       0.000009590975
128      -0.000001705230
129      -0.000015584329
130      -0.000018545454
131       0.005732909181
132       0.000073843455
133       0.000475422547
134      -0.002679211091
135       0.000077899519
136       0.000238401181
137       0.000138834285
138      -0.000085610284
139      -0.000246134139
140      -0.000231900354
141      -0.000707530780
142      -0.001453515804
143      -0.000455666432
144      -0.000001528855
145       0.000015427714
146      -0.000012553121
147       0.000009418593
148      -0.000024630564
149       0.000010434347
150      -0.000185044257
151      -0.000554594123
152       0.000352389394
153      -0.000095703843
154       0.000146294221
155      -0.000058233575
156      -0.000005719724
157       0.000187922396
158      -0.000088508689
159      -0.000170404449
160      -0.000078543435
161      -0.000000011079
162      -0.000038178321
163      -0.000061128209
164      -0.000019335683
165      -0.000030991894
166       0.000004384640
167      -0.000060393372
168      -0.000115591553
169      -0.000142106337
170      -0.000002444078
171       0.000011022247
172      -0.000033193075
173       0.000064712909
174       0.000002615863
175       0.978820783834
176       0.001800346583
177       0.040722516985
178       0.008260952947
179       0.000535735335
180       0.000601953630
181      -0.000558960833
182      -0.000870305199
183      -0.000605458294
184       0.001363665638
185      -0.000707693681
186      -0.001342880347
187       0.000007134924
188       0.000030479271
189       0.000041893214
190      -0.000027469445
191       0.000068597730
192      -0.000138531454
193      -0.000104268407
194       0.000504412124
195       0.000308078779
196       0.000058566761
197      -0.000446067617
198       0.000110795198
199       0.000441283241
200      -0.000149386742
201       0.000273965866
202      -0.000524212878
203      -0.000128576621
204      -0.000318375195
205       0.000009125209
206      -0.000131391517
207      -0.000090842775
208      -0.000018099964
209      -0.000024887351
210       0.000001090282
211      -0.000003470291
212      -0.000145785781
213      -0.000143054898
214      -0.000015919421
215      -0.000019478618
216      -0.000049121136
217      -0.000007373763
218      -0.000044400183
219       0.000213737288
220      -0.001722605169
221      -0.000776918915
222       0.000162488642
223      -0.000091272403
224       0.000281677707
225       0.000399544677
226      -0.000017851684
227       0.000581713655
228      -0.000164468197
229      -0.000227572411
230       0.000061634653
231      -0.000060729543
232       0.000059029279
233       0.000234940978
234      -0.001678506142
235      -0.000792987960
236      -0.000263876112
237       0.000169392792
238       0.000086812038
239      -0.000487114193
240       0.000491792964
241       0.000235721017
242       0.000107680811
243       0.000112186968
244      -0.000100075058
245      -0.000065595441
246       0.000244988901
247      -0.000022677669
248       0.000277680216
249       0.000133153058
250       0.000542059100
251      -0.000159045691
252      -0.000149167019
253       0.000176706150
254      -0.000204718476
255      -0.000145112936
256       0.000136819719
257      -0.000459661901
258       0.000061399885
259      -0.000050471944
260       0.000002140585
261      -0.000058582586
262      -0.000019521300
263      -0.000006949795
264       0.000044589369
265      -0.000009497191
266       0.000176460669
267       0.000027200231
268       0.000035466980
269      -0.000127111517
270       0.000082072416
271       0.000042958028
272       0.000061078566
273      -0.000024257756
274      -0.000131415419
275       0.000042553717
276      -0.000078829264
277      -0.000055430709
278      -0.000569318291
279       0.000027851158
280      -0.000008545348
281       0.000043821077
282      -0.000042361012
283       0.000020350804
284       0.000027832091
285      -0.000066883335
286       0.000005985686
287      -0.000011121354
288      -0.000065875223
289       0.000013753578
290       0.000015980290
 Sym=     1a
 Ene= -1.12255271151967E+01
 Spin= Alpha
 Occup= 2.000000
  1       0.050367585948
  2       0.000206742210
  3       0.002316690799
  4      -0.001879572693
  5       0.000070342240
  6       0.000202951313
  7       0.000107778676
  8       0.000149820418
  9       0.000235040621
 10      -0.000029521536
 11      -0.000161284580
 12      -0.000519856520
 13      -0.000342287285
 14      -0.000003098498
 15       0.000010199150
 16      -0.000007119949
 17       0.000010940083
 18      -0.000018375019
 19       0.000091667774
 20      -0.000043801084
 21      -0.000166643025
 22       0.000184362743
 23      -0.000201419439
 24       0.000149365375
 25      -0.000069597287
 26       0.000024992079
 27       0.000163496814
 28      -0.000077892696
 29      -0.000172650689
 30      -0.000060784588
 31       0.975038695905
 32       0.001757359962
 33       0.040960885847
 34       0.008999455496
 35      -0.000007578789
 36      -0.000026574756
 37      -0.000034556362
 38      -0.000221194083
 39       0.000367161968
 40       0.001011586755
 41       0.000219416587
 42      -0.000085687298
 43      -0.000563879724
 44       0.000008557183
 45       0.000075907700
 46      -0.000025453168
 47       0.000086694427
 48      -0.000166431802
 49       0.000040143547
 50       0.000147064208
 51      -0.000126881092
 52       0.000247364755
 53      -0.000413835515
 54       0.000070689363
 55       0.000456103877
 56      -0.000176500065
 57       0.000256792950
 58      -0.000476029312
 59      -0.000090137241
 60      -0.000309605526
 61      -0.000014923365
 62       0.000262515302
 63       0.000087760319
 64      -0.000011398593
 65      -0.000028211501
 66      -0.000012082546
 67       0.000073454105
 68      -0.000041061244
 69      -0.000216137640
 70       0.000043932477
 71      -0.000034430137
 72      -0.000022907279
 73       0.000030106901
 74      -0.000024186950
 75       0.000020642107
 76      -0.000109592931
 77      -0.000044574322
 78       0.000001008695
 79      -0.000017222290
 80      -0.000003144832
 81      -0.000106607463
 82      -0.000195271695
 83      -0.000103395645
 84       0.000000918013
 85      -0.000000445456
 86      -0.000049859013
 87       0.000064562986
 88       0.000008268596
 89       0.000021040338
 90      -0.000109790875
 91      -0.000055261764
 92      -0.000011242326
 93      -0.000009837603
 94      -0.000008611685
 95      -0.000057725895
 96      -0.000225085388
 97      -0.000082150825
 98      -0.000011722268
 99      -0.000029250509
100      -0.000067064819
101       0.000001573656
102      -0.000035318297
103       0.000254617750
104      -0.001811137254
105      -0.000824604920
106       0.000182129038
107      -0.000086580109
108       0.000274437276
109       0.000307738544
110      -0.000143912433
111       0.000741360699
112      -0.000219429335
113      -0.000251734398
114       0.000120068230
115      -0.000058619605
116       0.000072469287
117       0.000254383057
118      -0.001788734470
119      -0.000816524024
120      -0.000277997411
121       0.000182816270
122       0.000069182404
123      -0.000626027123
124       0.000400851805
125       0.000318761099
126       0.000132586037
127       0.000144359842
128      -0.000092396502
129      -0.000121023690
130       0.000270564048
131       0.066915542873
132       0.000345297996
133       0.003023665133
134      -0.001914541976
135      -0.000154986700
136      -0.000137748696
137       0.000154917044
138      -0.000005202867
139      -0.000113594030
140      -0.000135630024
141       0.000463430438
142       0.000359480664
143      -0.000540751271
144      -0.000018115255
145       0.000011566001
146      -0.000018417197
147       0.000007905473
148      -0.000009256859
149       0.000004560655
150       0.000291019907
151       0.000246571826
152       0.000029798980
153      -0.000304199652
154       0.000118457915
155       0.000016847848